
                                 *****************
                                 * O   R   C   A *
                                 *****************

           --- An Ab Initio, DFT and Semiempirical electronic structure package ---

                  #######################################################
                  #                        -***-                        #
                  #          Department of theory and spectroscopy      #
                  #               Directorship: Frank Neese             #
                  #        Max Planck Institute fuer Kohlenforschung    #
                  #                Kaiser Wilhelm Platz 1               #
                  #                 D-45470 Muelheim/Ruhr               #
                  #                      Germany                        #
                  #                                                     #
                  #                  All rights reserved                #
                  #                        -***-                        #
                  #######################################################


                         Program Version 4.2.0 -  RELEASE  -


 With contributions from (in alphabetic order):
   Daniel Aravena         : Magnetic Suceptibility
   Michael Atanasov       : Ab Initio Ligand Field Theory (pilot matlab implementation)
   Alexander A. Auer      : GIAO ZORA, VPT2
   Ute Becker             : Parallelization
   Giovanni Bistoni       : ED, misc. LED, open-shell LED, HFLED
   Martin Brehm           : Molecular dynamics
   Dmytro Bykov           : SCF Hessian
   Vijay G. Chilkuri      : MRCI spin determinant printing, contributions to CSF-ICE
   Dipayan Datta          : RHF DLPNO-CCSD density
   Achintya Kumar Dutta   : EOM-CC, STEOM-CC
   Dmitry Ganyushin       : Spin-Orbit,Spin-Spin,Magnetic field MRCI
   Miquel Garcia          : C-PCM Hessian, Gaussian charge scheme
   Yang Guo               : DLPNO-NEVPT2, CIM, IAO-localization
   Andreas Hansen         : Spin unrestricted coupled pair/coupled cluster methods
   Benjamin Helmich-Paris : CASSCF linear response (MC-RPA)
   Lee Huntington         : MR-EOM, pCC
   Robert Izsak           : Overlap fitted RIJCOSX, COSX-SCS-MP3, EOM
   Christian Kollmar      : KDIIS, OOCD, Brueckner-CCSD(T), CCSD density
   Simone Kossmann        : Meta GGA functionals, TD-DFT gradient, OOMP2, MP2 Hessian
   Martin Krupicka        : AUTO-CI
   Lucas Lang             : DCDCAS
   Dagmar Lenk            : GEPOL surface, SMD
   Dimitrios Liakos       : Extrapolation schemes; Compound Job, initial MDCI parallelization
   Dimitrios Manganas     : Further ROCIS development; embedding schemes
   Dimitrios Pantazis     : SARC Basis sets
   Taras Petrenko         : DFT Hessian,TD-DFT gradient, ASA, ECA, R-Raman, ABS, FL, XAS/XES, NRVS
   Peter Pinski           : DLPNO-MP2, DLPNO-MP2 Gradient
   Christoph Reimann      : Effective Core Potentials
   Marius Retegan         : Local ZFS, SOC
   Christoph Riplinger    : Optimizer, TS searches, QM/MM, DLPNO-CCSD(T), (RO)-DLPNO pert. Triples
   Tobias Risthaus        : Range-separated hybrids, TD-DFT gradient, RPA, STAB
   Michael Roemelt        : Original ROCIS implementation
   Masaaki Saitow         : Open-shell DLPNO-CCSD energy and density
   Barbara Sandhoefer     : DKH picture change effects
   Avijit Sen             : IP-ROCIS
   Kantharuban Sivalingam : CASSCF convergence, NEVPT2, FIC-MRCI
   Bernardo de Souza      : ESD, SOC TD-DFT
   Georgi Stoychev        : AutoAux, RI-MP2 NMR
   Willem Van den Heuvel  : Paramagnetic NMR
   Boris Wezisla          : Elementary symmetry handling
   Frank Wennmohs         : Technical directorship


 We gratefully acknowledge several colleagues who have allowed us to
 interface, adapt or use parts of their codes:
   Stefan Grimme, W. Hujo, H. Kruse,             : VdW corrections, initial TS optimization,
                  C. Bannwarth                     DFT functionals, gCP, sTDA/sTD-DF
   Ed Valeev, F. Pavosevic, A. Kumar             : LibInt (2-el integral package), F12 methods
   Garnet Chan, S. Sharma, J. Yang, R. Olivares  : DMRG
   Ulf Ekstrom                                   : XCFun DFT Library
   Mihaly Kallay                                 : mrcc  (arbitrary order and MRCC methods)
   Andreas Klamt, Michael Diedenhofen            : otool_cosmo (COSMO solvation model)
   Jiri Pittner, Ondrej Demel                    : Mk-CCSD
   Frank Weinhold                                : gennbo (NPA and NBO analysis)
   Christopher J. Cramer and Donald G. Truhlar   : smd solvation model
   Lars Goerigk                                  : TD-DFT with DH, B97 family of functionals
   V. Asgeirsson, H. Jonsson                     : NEB implementation
   FAccTs GmbH                                   : IRC, NEB, NEB-TS, Multilevel, MM, QM/MM, CI optimization
   S Lehtola, MJT Oliveira, MAL Marques          : LibXC Library


 Your calculation uses the libint2 library for the computation of 2-el integrals
 For citations please refer to: http://libint.valeyev.net

 Your ORCA version has been built with support for libXC version: 4.2.3
 For citations please refer to: https://tddft.org/programs/libxc/

 This ORCA versions uses:
   CBLAS   interface :  Fast vector & matrix operations
   LAPACKE interface :  Fast linear algebra routines
   SCALAPACK package :  Parallel linear algebra routines


Your calculation utilizes the atom-pairwise dispersion correction
with the Becke-Johnson damping scheme (D3BJ)
Cite in your paper:
S.Grimme, S.Ehrlich, L.Goerigk, J Comput Chem, (2011), 32, 1456–1465 
S.Grimme, J.Antony, S.Ehrlich and H.Krieg, J.Chem.Phys., 132, (2010), 154104 
   

----- Orbital basis set information -----
Your calculation utilizes the basis: aug-cc-pV(T+d)Z 
             Al - Ar: T.H. Dunning, Jr., K. A. Peterson and A. K. Wilson, J. Chem. Phys.
                      114, 9244 (2001)

----- AuxJK basis set information -----
Your calculation utilizes the auxiliary basis: def2/JK
   H-Ba, Hf-Rn: F. Weigend, J. Comput. Chem. 29, 167 (2008).

================================================================================
                                        WARNINGS
                       Please study these warnings very carefully!
================================================================================


WARNING: Geometry Optimization
  ===> : Switching off AutoStart
         For restart on a previous wavefunction, please use MOREAD

INFO   : the flag for use of LIBINT has been found!

================================================================================
                                       INPUT FILE
================================================================================
NAME = 01_H2O.in
|  1> #
|  2> # 01_H2O tpssh/aug-cc-pvt(+d)z
|  3> #
|  4> ! tpssh d3bj aug-cc-pvt(+d)z def2/jk grid4 nofinalgrid opt xyzfile numfreq
|  5> 
|  6> *xyz 0 1
|  7> O	0	0	0.12434822
|  8> H	0	-1.43139324	-0.98674827
|  9> H	0	1.43139324	-0.98674827
| 10> *
| 11> 
| 12> %maxcore 5000
| 13> 
| 14> %pal
| 15> nprocs 24
| 16> end
| 17> 
| 18> 
| 19>                          ****END OF INPUT****
================================================================================

                       *****************************
                       * Geometry Optimization Run *
                       *****************************

Geometry optimization settings:
Update method            Update   .... BFGS
Choice of coordinates    CoordSys .... Z-matrix Internals
Initial Hessian          InHess   .... Almoef's Model

Convergence Tolerances:
Energy Change            TolE     ....  5.0000e-06 Eh
Max. Gradient            TolMAXG  ....  3.0000e-04 Eh/bohr
RMS Gradient             TolRMSG  ....  1.0000e-04 Eh/bohr
Max. Displacement        TolMAXD  ....  4.0000e-03 bohr
RMS Displacement         TolRMSD  ....  2.0000e-03 bohr
Strict Convergence                ....  False
------------------------------------------------------------------------------
                        ORCA OPTIMIZATION COORDINATE SETUP
------------------------------------------------------------------------------

The optimization will be done in new redundant internal coordinates
Making redundant internal coordinates   ...  (new redundants) done
Evaluating the initial hessian          ...  (Almloef) done
Evaluating the coordinates              ...  done
Calculating the B-matrix                .... done
Calculating the G-matrix                .... done
Diagonalizing the G-matrix              .... done
The first mode is                       ....    0
The number of degrees of freedom        ....    3

    -----------------------------------------------------------------
                    Redundant Internal Coordinates


    -----------------------------------------------------------------
         Definition                    Initial Value    Approx d2E/dq
    -----------------------------------------------------------------
      1. B(H   1,O   0)                  1.8120         0.022731   
      2. B(H   2,O   0)                  1.8120         0.022731   
      3. A(H   1,O   0,H   2)          104.3603         0.145455   
    -----------------------------------------------------------------

Number of atoms                         .... 3
Number of degrees of freedom            .... 3

         *************************************************************
         *                GEOMETRY OPTIMIZATION CYCLE   1            *
         *************************************************************
---------------------------------
CARTESIAN COORDINATES (ANGSTROEM)
---------------------------------
  O      0.000000    0.000000    0.124348
  H      0.000000   -1.431393   -0.986748
  H      0.000000    1.431393   -0.986748

----------------------------
CARTESIAN COORDINATES (A.U.)
----------------------------
  NO LB      ZA    FRAG     MASS         X           Y           Z
   0 O     8.0000    0    15.999    0.000000    0.000000    0.234984
   1 H     1.0000    0     1.008    0.000000   -2.704941   -1.864684
   2 H     1.0000    0     1.008    0.000000    2.704941   -1.864684

--------------------------------
INTERNAL COORDINATES (ANGSTROEM)
--------------------------------
 O      0   0   0     0.000000000000     0.00000000     0.00000000
 H      1   0   0     1.812021527910     0.00000000     0.00000000
 H      1   2   0     1.812021527910   104.36032046     0.00000000

---------------------------
INTERNAL COORDINATES (A.U.)
---------------------------
 O      0   0   0     0.000000000000     0.00000000     0.00000000
 H      1   0   0     3.424224436519     0.00000000     0.00000000
 H      1   2   0     3.424224436519   104.36032046     0.00000000

---------------------
BASIS SET INFORMATION
---------------------
There are 2 groups of distinct atoms

 Group   1 Type O   : 19s6p3d2f contracted to 5s4p3d2f pattern {88111/3111/111/11}
 Group   2 Type H   : 6s3p2d contracted to 4s3p2d pattern {3111/111/11}

Atom   0O    basis set group =>   1
Atom   1H    basis set group =>   2
Atom   2H    basis set group =>   2
----------------------------------
AUXILIARY/JK BASIS SET INFORMATION
----------------------------------
There are 2 groups of distinct atoms

 Group   1 Type O   : 14s10p6d2f1g contracted to 10s8p4d2f1g pattern {5111111111/31111111/3111/11/1}
 Group   2 Type H   : 4s2p2d contracted to 2s2p2d pattern {31/11/11}

Atom   0O    basis set group =>   1
Atom   1H    basis set group =>   2
Atom   2H    basis set group =>   2


           ************************************************************
           *        Program running with 24 parallel MPI-processes    *
           *              working on a common directory               *
           ************************************************************
------------------------------------------------------------------------------
                           ORCA GTO INTEGRAL CALCULATION
------------------------------------------------------------------------------

                         BASIS SET STATISTICS AND STARTUP INFO

 # of primitive gaussian shells          ...   52
 # of primitive gaussian functions       ...  116
 # of contracted shells                  ...   32
 # of contracted basis functions         ...   92
 Highest angular momentum                ...    3
 Maximum contraction depth               ...    8
 Integral package used                   ... LIBINT
 Integral threshhold            Thresh   ...  2.500e-11
 Primitive cut-off              TCut     ...  2.500e-12


------------------------------ INTEGRAL EVALUATION ----------------------------


 * One electron integrals 
 Pre-screening matrix                    ... done
 Shell pair data                         ... done (   0.000 sec)



           ************************************************************
           *        Program running with 24 parallel MPI-processes    *
           *              working on a common directory               *
           ************************************************************
-------------------------------------------------------------------------------
                                 ORCA SCF
-------------------------------------------------------------------------------

------------
SCF SETTINGS
------------
Hamiltonian:
 Density Functional     Method          .... DFT(GTOs)
 Exchange Functional    Exchange        .... TPSS
 Correlation Functional Correlation     .... TPSS
 LDA part of GGA corr.  LDAOpt          .... PW91-LDA
 Gradients option       PostSCFGGA      .... off
 Hybrid DFT is turned on
   Fraction HF Exchange ScalHFX         ....  0.100000
   Scaling of DF-GGA-X  ScalDFX         ....  0.900000
   Scaling of DF-GGA-C  ScalDFC         ....  1.000000
   Scaling of DF-LDA-C  ScalLDAC        ....  1.000000
   Perturbative correction              ....  0.000000
   Density functional embedding theory  .... OFF
   NL short-range parameter             ....  5.200000


General Settings:
 Integral files         IntName         .... 01_H2O
 Hartree-Fock type      HFTyp           .... RHF
 Total Charge           Charge          ....    0
 Multiplicity           Mult            ....    1
 Number of Electrons    NEL             ....   10
 Basis Dimension        Dim             ....   92
 Nuclear Repulsion      ENuc            ....      4.8574378178 Eh

Convergence Acceleration:
 DIIS                   CNVDIIS         .... on
   Start iteration      DIISMaxIt       ....    12
   Startup error        DIISStart       ....  0.200000
   # of expansion vecs  DIISMaxEq       ....     5
   Bias factor          DIISBfac        ....   1.050
   Max. coefficient     DIISMaxC        ....  10.000
 Newton-Raphson         CNVNR           .... off
 SOSCF                  CNVSOSCF        .... on
   Start iteration      SOSCFMaxIt      ....   150
   Startup grad/error   SOSCFStart      ....  0.003300
 Level Shifting         CNVShift        .... on
   Level shift para.    LevelShift      ....    0.2500
   Turn off err/grad.   ShiftErr        ....    0.0010
 Zerner damping         CNVZerner       .... off
 Static damping         CNVDamp         .... on
   Fraction old density DampFac         ....    0.7000
   Max. Damping (<1)    DampMax         ....    0.9800
   Min. Damping (>=0)   DampMin         ....    0.0000
   Turn off err/grad.   DampErr         ....    0.1000
 Fernandez-Rico         CNVRico         .... off

SCF Procedure:
 Maximum # iterations   MaxIter         ....   125
 SCF integral mode      SCFMode         .... Direct
   Integral package                     .... LIBINT
 Reset frequency        DirectResetFreq ....    20
 Integral Threshold     Thresh          ....  2.500e-11 Eh
 Primitive CutOff       TCut            ....  2.500e-12 Eh

Convergence Tolerance:
 Convergence Check Mode ConvCheckMode   .... Total+1el-Energy
 Convergence forced     ConvForced      .... 0
 Energy Change          TolE            ....  1.000e-08 Eh
 1-El. energy change                    ....  1.000e-05 Eh
 Orbital Gradient       TolG            ....  1.000e-05
 Orbital Rotation angle TolX            ....  1.000e-05
 DIIS Error             TolErr          ....  5.000e-07


Diagonalization of the overlap matrix:
Smallest eigenvalue                        ... 2.610e-03
Time for diagonalization                   ...    0.003 sec
Threshold for overlap eigenvalues          ... 1.000e-08
Number of eigenvalues below threshold      ... 0
Time for construction of square roots      ...    0.001 sec
Total time needed                          ...    0.004 sec

-------------------
DFT GRID GENERATION
-------------------

General Integration Accuracy     IntAcc      ...  4.670
Radial Grid Type                 RadialGrid  ... Gauss-Chebyshev
Angular Grid (max. acc.)         AngularGrid ... Lebedev-302
Angular grid pruning method      GridPruning ... 3 (G Style)
Weight generation scheme         WeightScheme... Becke
Basis function cutoff            BFCut       ...    1.0000e-11
Integration weight cutoff        WCut        ...    1.0000e-14
Grids for H and He will be reduced by one unit

# of grid points (after initial pruning)     ...  13000 (   0.0 sec)
# of grid points (after weights+screening)   ...  12960 (   0.0 sec)
nearest neighbour list constructed           ...    0.0 sec
Grid point re-assignment to atoms done       ...    0.0 sec
Grid point division into batches done        ...    0.0 sec
Reduced shell lists constructed in    0.0 sec

Total number of grid points                  ...    12960
Total number of batches                      ...      204
Average number of points per batch           ...       63
Average number of grid points per atom       ...     4320
Average number of shells per batch           ...    14.90 (46.56%)
Average number of basis functions per batch  ...    39.50 (42.93%)
Average number of large shells per batch     ...    10.80 (72.48%)
Average number of large basis fcns per batch ...    27.00 (68.35%)
Maximum spatial batch extension              ...  13.24, 16.88, 11.34 au
Average spatial batch extension              ...   0.48,  0.49,  0.43 au

Time for grid setup =    0.074 sec

------------------------------
INITIAL GUESS: MODEL POTENTIAL
------------------------------
Loading Hartree-Fock densities                     ... done
Calculating cut-offs                               ... done
Setting up the integral package                    ... done
Initializing the effective Hamiltonian             ... done
Starting the Coulomb interaction                   ... done (   0.0 sec)
Reading the grid                                   ... done
Mapping shells                                     ... done
Starting the XC term evaluation                    ... done (   0.0 sec)
  promolecular density results
     # of electrons  =      9.999018782
     EX              =     -8.547441018
     EC              =     -0.286538604
     EX+EC           =     -8.833979621
Transforming the Hamiltonian                       ... done (   0.0 sec)
Diagonalizing the Hamiltonian                      ... done (   0.0 sec)
Back transforming the eigenvectors                 ... done (   0.0 sec)
Now organizing SCF variables                       ... done
                      ------------------
                      INITIAL GUESS DONE (   0.2 sec)
                      ------------------
--------------
SCF ITERATIONS
--------------
ITER       Energy         Delta-E        Max-DP      RMS-DP      [F,P]     Damp
               ***  Starting incremental Fock matrix formation  ***
  0    -75.8687902263   0.000000000000 0.09213396  0.00353834  0.4617569 0.7000
  1    -76.0512369982  -0.182446771881 0.04873124  0.00174816  0.0428816 0.7000
                               ***Turning on DIIS***
  2    -76.0381884906   0.013048507607 0.02772974  0.00086221  0.1933058 0.7000
  3    -76.0812907012  -0.043102210661 0.03506279  0.00166419  0.0759582 0.0000
  4    -76.1430678239  -0.061777122652 0.01175536  0.00038242  0.0848324 0.0000
  5    -76.1494971186  -0.006429294727 0.00730971  0.00023997  0.0418273 0.0000
  6    -76.1517986901  -0.002301571495 0.00380789  0.00013943  0.0199483 0.0000
  7    -76.1523925645  -0.000593874440 0.00153476  0.00006127  0.0084283 0.0000
  8    -76.1524997310  -0.000107166487 0.00064003  0.00002636  0.0037585 0.0000
                      *** Initiating the SOSCF procedure ***
                           *** Shutting down DIIS ***
                      *** Re-Reading the Fockian *** 
                      *** Removing any level shift *** 
ITER      Energy       Delta-E        Grad      Rot      Max-DP    RMS-DP
  9    -76.15252102  -0.0000212925  0.000319  0.000319  0.000283  0.000012
               *** Restarting incremental Fock matrix formation ***
 10    -76.15252582  -0.0000047971  0.000687  0.004284  0.001985  0.000068
 11    -76.15247266   0.0000531602  0.003758  0.003466  0.001672  0.000057
 12    -76.15252763  -0.0000549708  0.000036  0.000026  0.000039  0.000001
 13    -76.15252764  -0.0000000046  0.000012  0.000009  0.000008  0.000000
                 **** Energy Check signals convergence ****
              ***Rediagonalizing the Fockian in SOSCF/NRSCF***

               *****************************************************
               *                     SUCCESS                       *
               *           SCF CONVERGED AFTER  14 CYCLES          *
               *****************************************************


----------------
TOTAL SCF ENERGY
----------------

Total Energy       :          -76.15252764 Eh           -2072.21563 eV

Components:
Nuclear Repulsion  :            4.85743782 Eh             132.17760 eV
Electronic Energy  :          -81.00996545 Eh           -2204.39323 eV
One Electron Energy:         -114.59292103 Eh           -3118.23191 eV
Two Electron Energy:           33.58295558 Eh             913.83868 eV

Virial components:
Potential Energy   :         -151.35192486 Eh           -4118.49526 eV
Kinetic Energy     :           75.19939722 Eh            2046.27963 eV
Virial Ratio       :            2.01267471


DFT components:
N(Alpha)           :        5.000017469522 electrons
N(Beta)            :        5.000017469522 electrons
N(Total)           :       10.000034939044 electrons
E(X)               :       -7.768972939527 Eh       
E(C)               :       -0.297486317420 Eh       
E(XC)              :       -8.066459256947 Eh       
DFET-embed. en.    :        0.000000000000 Eh       

---------------
SCF CONVERGENCE
---------------

  Last Energy change         ...   -7.4199e-10  Tolerance :   1.0000e-08
  Last MAX-Density change    ...    1.0585e-06  Tolerance :   1.0000e-07
  Last RMS-Density change    ...    3.4007e-08  Tolerance :   5.0000e-09
  Last Orbital Gradient      ...    1.2079e-06  Tolerance :   1.0000e-05
  Last Orbital Rotation      ...    1.5847e-06  Tolerance :   1.0000e-05

             **** THE GBW FILE WAS UPDATED (01_H2O.gbw) ****
             **** DENSITY FILE WAS UPDATED (01_H2O.scfp) ****
             **** ENERGY FILE WAS UPDATED (01_H2O.en.tmp) ****
             **** THE GBW FILE WAS UPDATED (01_H2O.gbw) ****
             **** DENSITY FILE WAS UPDATED (01_H2O.scfp) ****
----------------
ORBITAL ENERGIES
----------------

  NO   OCC          E(Eh)            E(eV) 
   0   2.0000     -19.130706      -520.5730 
   1   2.0000      -0.870016       -23.6743 
   2   2.0000      -0.346156        -9.4194 
   3   2.0000      -0.326412        -8.8821 
   4   2.0000      -0.278657        -7.5826 
   5   0.0000      -0.175467        -4.7747 
   6   0.0000      -0.147940        -4.0256 
   7   0.0000       0.027866         0.7583 
   8   0.0000       0.035430         0.9641 
   9   0.0000       0.087146         2.3714 
  10   0.0000       0.096497         2.6258 
  11   0.0000       0.139773         3.8034 
  12   0.0000       0.141582         3.8526 
  13   0.0000       0.161247         4.3878 
  14   0.0000       0.196934         5.3588 
  15   0.0000       0.204459         5.5636 
  16   0.0000       0.231133         6.2894 
  17   0.0000       0.239484         6.5167 
  18   0.0000       0.249695         6.7945 
  19   0.0000       0.432731        11.7752 
  20   0.0000       0.477676        12.9982 
  21   0.0000       0.563600        15.3363 
  22   0.0000       0.584300        15.8996 
  23   0.0000       0.584907        15.9161 
  24   0.0000       0.612616        16.6701 
  25   0.0000       0.635348        17.2887 
  26   0.0000       0.684102        18.6154 
  27   0.0000       0.731508        19.9053 
  28   0.0000       0.737143        20.0587 
  29   0.0000       0.741531        20.1781 
  30   0.0000       0.755547        20.5595 
  31   0.0000       0.787454        21.4277 
  32   0.0000       0.803555        21.8658 
  33   0.0000       0.838866        22.8267 
  34   0.0000       0.847471        23.0609 
  35   0.0000       0.862982        23.4829 
  36   0.0000       0.880768        23.9669 
  37   0.0000       0.931273        25.3412 
  38   0.0000       0.986864        26.8539 
  39   0.0000       0.988454        26.8972 
  40   0.0000       1.002785        27.2872 
  41   0.0000       1.088557        29.6211 
  42   0.0000       1.099371        29.9154 
  43   0.0000       1.218766        33.1643 
  44   0.0000       1.461997        39.7830 
  45   0.0000       1.716051        46.6961 
  46   0.0000       1.901368        51.7389 
  47   0.0000       1.909847        51.9696 
  48   0.0000       1.934214        52.6326 
  49   0.0000       1.973481        53.7012 
  50   0.0000       2.004517        54.5457 
  51   0.0000       2.033541        55.3355 
  52   0.0000       2.077987        56.5449 
  53   0.0000       2.078661        56.5632 
  54   0.0000       2.132509        58.0285 
  55   0.0000       2.210683        60.1557 
  56   0.0000       2.266226        61.6672 
  57   0.0000       2.293714        62.4151 
  58   0.0000       2.793836        76.0241 
  59   0.0000       2.814568        76.5883 
  60   0.0000       3.595548        97.8398 
  61   0.0000       3.618060        98.4524 
  62   0.0000       3.647048        99.2412 
  63   0.0000       3.650816        99.3437 
  64   0.0000       3.687523       100.3426 
  65   0.0000       3.711578       100.9972 
  66   0.0000       3.758964       102.2866 
  67   0.0000       3.773559       102.6838 
  68   0.0000       3.809572       103.6637 
  69   0.0000       3.866669       105.2174 
  70   0.0000       3.886939       105.7690 
  71   0.0000       3.888371       105.8080 
  72   0.0000       3.931015       106.9684 
  73   0.0000       4.007622       109.0529 
  74   0.0000       4.071230       110.7838 
  75   0.0000       4.088997       111.2673 
  76   0.0000       4.095366       111.4406 
  77   0.0000       4.397140       119.6523 
  78   0.0000       4.487217       122.1034 
  79   0.0000       6.139745       167.0710 
  80   0.0000       6.177827       168.1072 
  81   0.0000       6.252553       170.1406 
  82   0.0000       6.253138       170.1565 
  83   0.0000       6.287749       171.0983 
  84   0.0000       6.398921       174.1235 
  85   0.0000       6.457772       175.7249 
  86   0.0000       6.573289       178.8683 
  87   0.0000       6.584387       179.1703 
  88   0.0000       6.592724       179.3972 
  89   0.0000       6.664154       181.3408 
  90   0.0000       6.852003       186.4525 
  91   0.0000       9.782102       266.1845 

                    ********************************
                    * MULLIKEN POPULATION ANALYSIS *
                    ********************************

-----------------------
MULLIKEN ATOMIC CHARGES
-----------------------
   0 O :   -0.462988
   1 H :    0.231494
   2 H :    0.231494
Sum of atomic charges:   -0.0000000

--------------------------------
MULLIKEN REDUCED ORBITAL CHARGES
--------------------------------
  0 O s       :     3.993933  s :     3.993933
      pz      :     1.238696  p :     4.454366
      px      :     1.981102
      py      :     1.234568
      dz2     :     0.000766  d :     0.013862
      dxz     :     0.000362
      dyz     :     0.010993
      dx2y2   :     0.001741
      dxy     :    -0.000000
      f0      :    -0.000063  f :     0.000827
      f+1     :     0.000023
      f-1     :     0.000078
      f+2     :     0.000410
      f-2     :     0.000000
      f+3     :     0.000076
      f-3     :     0.000303
  1 H s       :     0.749206  s :     0.749206
      pz      :     0.003185  p :     0.016719
      px      :     0.007786
      py      :     0.005748
      dz2     :     0.000324  d :     0.002581
      dxz     :     0.000541
      dyz     :     0.000115
      dx2y2   :     0.000709
      dxy     :     0.000892
  2 H s       :     0.749206  s :     0.749206
      pz      :     0.003185  p :     0.016719
      px      :     0.007786
      py      :     0.005748
      dz2     :     0.000324  d :     0.002581
      dxz     :     0.000541
      dyz     :     0.000115
      dx2y2   :     0.000709
      dxy     :     0.000892


                     *******************************
                     * LOEWDIN POPULATION ANALYSIS *
                     *******************************

----------------------
LOEWDIN ATOMIC CHARGES
----------------------
   0 O :   -0.150172
   1 H :    0.075086
   2 H :    0.075086

-------------------------------
LOEWDIN REDUCED ORBITAL CHARGES
-------------------------------
  0 O s       :     3.713645  s :     3.713645
      pz      :     1.248310  p :     4.377399
      px      :     1.890327
      py      :     1.238762
      dz2     :     0.000092  d :     0.053069
      dxz     :     0.000373
      dyz     :     0.036261
      dx2y2   :     0.016343
      dxy     :     0.000000
      f0      :     0.000748  f :     0.006059
      f+1     :     0.000013
      f-1     :     0.001395
      f+2     :     0.003111
      f-2     :     0.000000
      f+3     :     0.000079
      f-3     :     0.000712
  1 H s       :     0.685991  s :     0.685991
      pz      :     0.044101  p :     0.126125
      px      :     0.025713
      py      :     0.056311
      dz2     :     0.014110  d :     0.112797
      dxz     :     0.010934
      dyz     :     0.048555
      dx2y2   :     0.021242
      dxy     :     0.017956
  2 H s       :     0.685991  s :     0.685991
      pz      :     0.044101  p :     0.126125
      px      :     0.025713
      py      :     0.056311
      dz2     :     0.014110  d :     0.112797
      dxz     :     0.010934
      dyz     :     0.048555
      dx2y2   :     0.021242
      dxy     :     0.017956


                      *****************************
                      * MAYER POPULATION ANALYSIS *
                      *****************************

  NA   - Mulliken gross atomic population
  ZA   - Total nuclear charge
  QA   - Mulliken gross atomic charge
  VA   - Mayer's total valence
  BVA  - Mayer's bonded valence
  FA   - Mayer's free valence

  ATOM       NA         ZA         QA         VA         BVA        FA
  0 O      8.4630     8.0000    -0.4630     1.9078     1.9078     0.0000
  1 H      0.7685     1.0000     0.2315     0.9648     0.9648    -0.0000
  2 H      0.7685     1.0000     0.2315     0.9648     0.9648    -0.0000

  Mayer bond orders larger than 0.100000
B(  0-O ,  1-H ) :   0.9539 B(  0-O ,  2-H ) :   0.9539 

-------
TIMINGS
-------

Total SCF time: 0 days 0 hours 0 min 2 sec 

Total time                  ....       2.042 sec
Sum of individual times     ....       1.824 sec  ( 89.3%)

Fock matrix formation       ....       1.615 sec  ( 79.1%)
  XC integration            ....       0.183 sec  ( 11.3% of F)
    Basis function eval.    ....       0.018 sec  (  9.7% of XC)
    Density eval.           ....       0.024 sec  ( 13.4% of XC)
    XC-Functional eval.     ....       0.016 sec  (  8.5% of XC)
    XC-Potential eval.      ....       0.046 sec  ( 25.1% of XC)
Diagonalization             ....       0.012 sec  (  0.6%)
Density matrix formation    ....       0.004 sec  (  0.2%)
Population analysis         ....       0.002 sec  (  0.1%)
Initial guess               ....       0.107 sec  (  5.2%)
Orbital Transformation      ....       0.000 sec  (  0.0%)
Orbital Orthonormalization  ....       0.000 sec  (  0.0%)
DIIS solution               ....       0.006 sec  (  0.3%)
SOSCF solution              ....       0.003 sec  (  0.2%)
Grid generation             ....       0.074 sec  (  3.6%)


-------------------------------------------------------------------------------
                          DFT DISPERSION CORRECTION                            
                                                                               
                              DFTD3 V3.1  Rev 1                                
                          USING Becke-Johnson damping                          
-------------------------------------------------------------------------------
The TPSSH functional is recognized
Active option DFTDOPT                   ...         4   

molecular C6(AA) [au] = 85.319616 


            DFT-D V3
 parameters
 s6 scaling factor         :     1.0000 
 a1 scaling factor         :     0.4529 
 s8 scaling factor         :     2.2382 
 a2 scaling factor         :     4.6550 
 ad hoc parameters k1-k3   :    16.0000     1.3333    -4.0000 

 Edisp/kcal,au: -0.417681410934  -0.000665617626 
 E6   /kcal   :  -0.228212445 
 E8   /kcal   :  -0.189468965 
 % E8         :  45.362077536 

-------------------------   ----------------
Dispersion correction           -0.000665618
-------------------------   ----------------


-------------------------   --------------------
FINAL SINGLE POINT ENERGY       -76.153193254282
-------------------------   --------------------



           ************************************************************
           *        Program running with 24 parallel MPI-processes    *
           *              working on a common directory               *
           ************************************************************
------------------------------------------------------------------------------
                         ORCA SCF GRADIENT CALCULATION
------------------------------------------------------------------------------

Gradient of the Kohn-Sham DFT energy:
Kohn-Sham wavefunction type      ... RKS
Hartree-Fock exchange scaling    ...    0.100
Number of operators              ...    1
Number of atoms                  ...    3
Basis set dimensions             ...   92
Integral neglect threshold       ... 2.5e-11
Integral primitive cutoff        ... 2.5e-12

Nuclear repulsion gradient       ... done
One Electron Gradient            ... done
Pre-screening matrix             ... done
Starting the two electron gradient:
Two electron gradient done
Exchange-correlation gradient    ... done
Dispersion correction            ... done

------------------
CARTESIAN GRADIENT
------------------

   1   O   :   -0.000000000    0.000000001    0.095447988
   2   H   :   -0.000000000   -0.069873210   -0.047759641
   3   H   :    0.000000001    0.069873199   -0.047759635

Difference to translation invariance:
           :    0.0000000002   -0.0000000091   -0.0000712890

Norm of the cartesian gradient     ...    0.1530908681
RMS gradient                       ...    0.0510302894
MAX gradient                       ...    0.0954479878

-------
TIMINGS
-------

Total SCF gradient time            ...        0.325 sec

One electron gradient       ....       0.008 sec  (  2.5%)
Prescreening matrices       ....       0.016 sec  (  5.0%)
Two electron gradient       ....       0.110 sec  ( 33.8%)
XC gradient                 ....       0.018 sec  (  5.5%)
------------------------------------------------------------------------------
                         ORCA GEOMETRY RELAXATION STEP
------------------------------------------------------------------------------

Reading the OPT-File                    .... done
Getting information on internals        .... done
Copying old internal coords+grads       .... done
Making the new internal coordinates     .... (new redundants).... done
Validating the new internal coordinates .... (new redundants).... done
Calculating the B-matrix                .... done
Calculating the G,G- and P matrices     .... done
Transforming gradient to internals      .... done
Projecting the internal gradient        .... done
Number of atoms                         ....   3
Number of internal coordinates          ....   3
Current Energy                          ....   -76.153193254 Eh
Current gradient norm                   ....     0.153090868 Eh/bohr
Maximum allowed component of the step   ....  0.300
Current trust radius                    ....  0.300
Evaluating the initial hessian          ....  (Almloef) done
Projecting the Hessian                  .... done
Forming the augmented Hessian           .... done
Diagonalizing the augmented Hessian     .... done
Last element of RFO vector              ....  0.740558643
Lowest eigenvalues of augmented Hessian:
 -0.109293806  0.022731116  0.124807675
Length of the computed step             ....  0.907411918
Warning: the length of the step is outside the trust region - taking restricted step instead
The input lambda is                     ....    -0.109294
   iter:   1  x=   -0.168255  g=   12.438563 f(x)=     0.733396
   iter:   2  x=   -0.242185  g=    4.116623 f(x)=     0.304339
   iter:   3  x=   -0.316835  g=    1.545613 f(x)=     0.115380
   iter:   4  x=   -0.364715  g=    0.735144 f(x)=     0.035199
   iter:   5  x=   -0.377320  g=    0.495334 f(x)=     0.006244
   iter:   6  x=   -0.377968  g=    0.450070 f(x)=     0.000291
   iter:   7  x=   -0.377969  g=    0.447897 f(x)=     0.000001
   iter:   8  x=   -0.377969  g=    0.447892 f(x)=     0.000000
   iter:   9  x=   -0.377969  g=    0.447892 f(x)=     0.000000
The output lambda is                    ....    -0.377969 (9 iterations)
The final length of the internal step   ....  0.300000000
Converting the step to cartesian space:
 Initial RMS(Int)=    0.1732050808
Transforming coordinates:
 Iter   0:  RMS(Cart)=    0.0978231386 RMS(Int)=    0.1729345380
 Iter   1:  RMS(Cart)=    0.0012679165 RMS(Int)=    0.0014308928
 Iter   2:  RMS(Cart)=    0.0000759409 RMS(Int)=    0.0001017519
 Iter   3:  RMS(Cart)=    0.0000045963 RMS(Int)=    0.0000061675
 Iter   4:  RMS(Cart)=    0.0000002780 RMS(Int)=    0.0000003734
 Iter   5:  RMS(Cart)=    0.0000000168 RMS(Int)=    0.0000000226
done
Storing new coordinates                 .... done

                                .--------------------.
          ----------------------|Geometry convergence|-------------------------
          Item                value                   Tolerance       Converged
          ---------------------------------------------------------------------
          RMS gradient        0.0697101734            0.0001000000      NO
          MAX gradient        0.0844665471            0.0003000000      NO
          RMS step            0.1732050808            0.0020000000      NO
          MAX step            0.2107972393            0.0040000000      NO
          ........................................................
          Max(Bonds)      0.1115      Max(Angles)    1.93
          Max(Dihed)        0.00      Max(Improp)    0.00
          ---------------------------------------------------------------------

The optimization has not yet converged - more geometry cycles are needed


    ---------------------------------------------------------------------------
                         Redundant Internal Coordinates
                            (Angstroem and degrees)

        Definition                    Value    dE/dq     Step     New-Value
    ----------------------------------------------------------------------------
     1. B(H   1,O   0)                1.8120  0.084467 -0.1115    1.7005   
     2. B(H   2,O   0)                1.8120  0.084467 -0.1115    1.7005   
     3. A(H   1,O   0,H   2)          104.36  0.017588   -1.93    102.44   
    ----------------------------------------------------------------------------

         *************************************************************
         *                GEOMETRY OPTIMIZATION CYCLE   2            *
         *************************************************************
---------------------------------
CARTESIAN COORDINATES (ANGSTROEM)
---------------------------------
  O      0.000000   -0.000000    0.093695
  H      0.000000   -1.325569   -0.971422
  H      0.000000    1.325569   -0.971422

----------------------------
CARTESIAN COORDINATES (A.U.)
----------------------------
  NO LB      ZA    FRAG     MASS         X           Y           Z
   0 O     8.0000    0    15.999    0.000000   -0.000000    0.177058
   1 H     1.0000    0     1.008    0.000000   -2.504962   -1.835721
   2 H     1.0000    0     1.008    0.000000    2.504962   -1.835721

--------------------------------
INTERNAL COORDINATES (ANGSTROEM)
--------------------------------
 O      0   0   0     0.000000000000     0.00000000     0.00000000
 H      1   0   0     1.700472432858     0.00000000     0.00000000
 H      1   2   0     1.700472440994   102.43510195     0.00000000

---------------------------
INTERNAL COORDINATES (A.U.)
---------------------------
 O      0   0   0     0.000000000000     0.00000000     0.00000000
 H      1   0   0     3.213427196384     0.00000000     0.00000000
 H      1   2   0     3.213427211759   102.43510195     0.00000000



           ************************************************************
           *        Program running with 24 parallel MPI-processes    *
           *              working on a common directory               *
           ************************************************************


           ************************************************************
           *        Program running with 24 parallel MPI-processes    *
           *              working on a common directory               *
           ************************************************************

Diagonalization of the overlap matrix:
Smallest eigenvalue                        ... 2.051e-03
Time for diagonalization                   ...    0.003 sec
Threshold for overlap eigenvalues          ... 1.000e-08
Number of eigenvalues below threshold      ... 0
Time for construction of square roots      ...    0.001 sec
Total time needed                          ...    0.005 sec

-------------------
DFT GRID GENERATION
-------------------

General Integration Accuracy     IntAcc      ...  4.670
Radial Grid Type                 RadialGrid  ... Gauss-Chebyshev
Angular Grid (max. acc.)         AngularGrid ... Lebedev-302
Angular grid pruning method      GridPruning ... 3 (G Style)
Weight generation scheme         WeightScheme... Becke
Basis function cutoff            BFCut       ...    1.0000e-11
Integration weight cutoff        WCut        ...    1.0000e-14
Grids for H and He will be reduced by one unit

# of grid points (after initial pruning)     ...  13000 (   0.0 sec)
# of grid points (after weights+screening)   ...  12946 (   0.0 sec)
nearest neighbour list constructed           ...    0.0 sec
Grid point re-assignment to atoms done       ...    0.0 sec
Grid point division into batches done        ...    0.0 sec
Reduced shell lists constructed in    0.0 sec

Total number of grid points                  ...    12946
Total number of batches                      ...      203
Average number of points per batch           ...       63
Average number of grid points per atom       ...     4315
Average number of shells per batch           ...    14.70 (45.94%)
Average number of basis functions per batch  ...    38.50 (41.85%)
Average number of large shells per batch     ...    10.80 (73.47%)
Average number of large basis fcns per batch ...    27.00 (70.13%)
Maximum spatial batch extension              ...  13.24, 16.88, 11.34 au
Average spatial batch extension              ...   0.48,  0.49,  0.43 au

Time for grid setup =    0.077 sec

--------------
SCF ITERATIONS
--------------
ITER       Energy         Delta-E        Max-DP      RMS-DP      [F,P]     Damp
               ***  Starting incremental Fock matrix formation  ***
  0    -76.1898339290   0.000000000000 0.00359440  0.00011815  0.0183078 0.7000
                      *** Initiating the SOSCF procedure ***
                      *** Re-Reading the Fockian *** 
                      *** Removing any level shift *** 
ITER      Energy       Delta-E        Grad      Rot      Max-DP    RMS-DP
  1    -76.19016709  -0.0003331608  0.002768  0.002768  0.006919  0.000274
               *** Restarting incremental Fock matrix formation ***
  2    -76.19033411  -0.0001670177  0.009350  0.045530  0.023432  0.000838
  3    -76.18251700   0.0078171124  0.045382  0.040561  0.020064  0.000697
  4    -76.19068987  -0.0081728710  0.000323  0.000473  0.000341  0.000014
  5    -76.19069080  -0.0000009350  0.000183  0.000161  0.000095  0.000004
  6    -76.19069102  -0.0000002184  0.000010  0.000018  0.000017  0.000001
  7    -76.19069102  -0.0000000011  0.000004  0.000002  0.000004  0.000000
                 **** Energy Check signals convergence ****
              ***Rediagonalizing the Fockian in SOSCF/NRSCF***

               *****************************************************
               *                     SUCCESS                       *
               *           SCF CONVERGED AFTER   8 CYCLES          *
               *****************************************************

Total Energy       :          -76.19069102 Eh           -2073.25410 eV
  Last Energy change         ...   -6.1561e-11  Tolerance :   1.0000e-08
  Last MAX-Density change    ...    2.3538e-07  Tolerance :   1.0000e-07
             **** THE GBW FILE WAS UPDATED (01_H2O.gbw) ****
             **** DENSITY FILE WAS UPDATED (01_H2O.scfp) ****
             **** ENERGY FILE WAS UPDATED (01_H2O.en.tmp) ****
             **** THE GBW FILE WAS UPDATED (01_H2O.gbw) ****
             **** DENSITY FILE WAS UPDATED (01_H2O.scfp) ****
Total SCF time: 0 days 0 hours 0 min 1 sec 


-------------------------------------------------------------------------------
                          DFT DISPERSION CORRECTION                            
                                                                               
                              DFTD3 V3.1  Rev 1                                
                          USING Becke-Johnson damping                          
-------------------------------------------------------------------------------
-------------------------   ----------------
Dispersion correction           -0.000686701
-------------------------   ----------------


-------------------------   --------------------
FINAL SINGLE POINT ENERGY       -76.191377722221
-------------------------   --------------------



           ************************************************************
           *        Program running with 24 parallel MPI-processes    *
           *              working on a common directory               *
           ************************************************************
------------------------------------------------------------------------------
                         ORCA SCF GRADIENT CALCULATION
------------------------------------------------------------------------------

Gradient of the Kohn-Sham DFT energy:
Kohn-Sham wavefunction type      ... RKS
Hartree-Fock exchange scaling    ...    0.100
Number of operators              ...    1
Number of atoms                  ...    3
Basis set dimensions             ...   92
Integral neglect threshold       ... 2.5e-11
Integral primitive cutoff        ... 2.5e-12

Nuclear repulsion gradient       ... done
One Electron Gradient            ... done
Pre-screening matrix             ... done
Starting the two electron gradient:
Two electron gradient done
Exchange-correlation gradient    ... done
Dispersion correction            ... done

------------------
CARTESIAN GRADIENT
------------------

   1   O   :    0.000000003    0.000000002    0.109112948
   2   H   :   -0.000000001   -0.076542067   -0.054627672
   3   H   :   -0.000000001    0.076542070   -0.054627673

Difference to translation invariance:
           :    0.0000000001    0.0000000045   -0.0001423978

Norm of the cartesian gradient     ...    0.1720214438
RMS gradient                       ...    0.0573404813
MAX gradient                       ...    0.1091129475

-------
TIMINGS
-------

Total SCF gradient time            ...        0.344 sec

One electron gradient       ....       0.001 sec  (  0.3%)
Prescreening matrices       ....       0.011 sec  (  3.1%)
Two electron gradient       ....       0.119 sec  ( 34.5%)
XC gradient                 ....       0.018 sec  (  5.2%)
------------------------------------------------------------------------------
                         ORCA GEOMETRY RELAXATION STEP
------------------------------------------------------------------------------

Reading the OPT-File                    .... done
Getting information on internals        .... done
Copying old internal coords+grads       .... done
Making the new internal coordinates     .... (new redundants).... done
Validating the new internal coordinates .... (new redundants).... done
Calculating the B-matrix                .... done
Calculating the G,G- and P matrices     .... done
Transforming gradient to internals      .... done
Projecting the internal gradient        .... done
Number of atoms                         ....   3
Number of internal coordinates          ....   3
Current Energy                          ....   -76.191377722 Eh
Current gradient norm                   ....     0.172021444 Eh/bohr
Maximum allowed component of the step   ....  0.300
Current trust radius                    ....  0.300
Updating the Hessian (BFGS)             .... done
Forming the augmented Hessian           .... done
Diagonalizing the augmented Hessian     .... done
Last element of RFO vector              ....  0.647203728
Lowest eigenvalues of augmented Hessian:
 -0.157592346  0.022731116  0.112355480
Length of the computed step             ....  1.177862626
Warning: the length of the step is outside the trust region - taking restricted step instead
The input lambda is                     ....    -0.157592
   iter:   1  x=   -0.210684  g=   24.436012 f(x)=     1.297360
   iter:   2  x=   -0.282375  g=    7.730395 f(x)=     0.554199
   iter:   3  x=   -0.367513  g=    2.642552 f(x)=     0.224979
   iter:   4  x=   -0.444157  g=    1.057118 f(x)=     0.081022
   iter:   5  x=   -0.483165  g=    0.558626 f(x)=     0.021791
   iter:   6  x=   -0.489832  g=    0.422610 f(x)=     0.002817
   iter:   7  x=   -0.489987  g=    0.403937 f(x)=     0.000063
   iter:   8  x=   -0.489987  g=    0.403514 f(x)=     0.000000
   iter:   9  x=   -0.489987  g=    0.403514 f(x)=     0.000000
   iter:  10  x=   -0.489987  g=    0.403514 f(x)=     0.000000
The output lambda is                    ....    -0.489987 (10 iterations)
The final length of the internal step   ....  0.300000000
Converting the step to cartesian space:
 Initial RMS(Int)=    0.1732050808
Transforming coordinates:
 Iter   0:  RMS(Cart)=    0.0969018499 RMS(Int)=    0.1729550154
 Iter   1:  RMS(Cart)=    0.0013263342 RMS(Int)=    0.0015683432
 Iter   2:  RMS(Cart)=    0.0000852289 RMS(Int)=    0.0001172640
 Iter   3:  RMS(Cart)=    0.0000055519 RMS(Int)=    0.0000076357
 Iter   4:  RMS(Cart)=    0.0000003615 RMS(Int)=    0.0000004975
 Iter   5:  RMS(Cart)=    0.0000000235 RMS(Int)=    0.0000000324
done
Storing new coordinates                 .... done

                                .--------------------.
          ----------------------|Geometry convergence|-------------------------
          Item                value                   Tolerance       Converged
          ---------------------------------------------------------------------
          Energy change      -0.0381844679            0.0000050000      NO
          RMS gradient        0.0772826806            0.0001000000      NO
          MAX gradient        0.0938539631            0.0003000000      NO
          RMS step            0.1732050808            0.0020000000      NO
          MAX step            0.2107158717            0.0040000000      NO
          ........................................................
          Max(Bonds)      0.1115      Max(Angles)    1.98
          Max(Dihed)        0.00      Max(Improp)    0.00
          ---------------------------------------------------------------------

The optimization has not yet converged - more geometry cycles are needed


    ---------------------------------------------------------------------------
                         Redundant Internal Coordinates
                            (Angstroem and degrees)

        Definition                    Value    dE/dq     Step     New-Value
    ----------------------------------------------------------------------------
     1. B(H   1,O   0)                1.7005  0.093854 -0.1115    1.5890   
     2. B(H   2,O   0)                1.7005  0.093854 -0.1115    1.5890   
     3. A(H   1,O   0,H   2)          102.44  0.017341   -1.98    100.45   
    ----------------------------------------------------------------------------

         *************************************************************
         *                GEOMETRY OPTIMIZATION CYCLE   3            *
         *************************************************************
---------------------------------
CARTESIAN COORDINATES (ANGSTROEM)
---------------------------------
  O      0.000000   -0.000000    0.061321
  H      0.000000   -1.221240   -0.955235
  H      0.000000    1.221240   -0.955235

----------------------------
CARTESIAN COORDINATES (A.U.)
----------------------------
  NO LB      ZA    FRAG     MASS         X           Y           Z
   0 O     8.0000    0    15.999    0.000000   -0.000000    0.115880
   1 H     1.0000    0     1.008    0.000000   -2.307810   -1.805132
   2 H     1.0000    0     1.008    0.000000    2.307810   -1.805132

--------------------------------
INTERNAL COORDINATES (ANGSTROEM)
--------------------------------
 O      0   0   0     0.000000000000     0.00000000     0.00000000
 H      1   0   0     1.588966401016     0.00000000     0.00000000
 H      1   2   0     1.588966403591   100.45226477     0.00000000

---------------------------
INTERNAL COORDINATES (A.U.)
---------------------------
 O      0   0   0     0.000000000000     0.00000000     0.00000000
 H      1   0   0     3.002711333922     0.00000000     0.00000000
 H      1   2   0     3.002711338789   100.45226477     0.00000000



           ************************************************************
           *        Program running with 24 parallel MPI-processes    *
           *              working on a common directory               *
           ************************************************************


           ************************************************************
           *        Program running with 24 parallel MPI-processes    *
           *              working on a common directory               *
           ************************************************************

Diagonalization of the overlap matrix:
Smallest eigenvalue                        ... 1.581e-03
Time for diagonalization                   ...    0.002 sec
Threshold for overlap eigenvalues          ... 1.000e-08
Number of eigenvalues below threshold      ... 0
Time for construction of square roots      ...    0.001 sec
Total time needed                          ...    0.003 sec

-------------------
DFT GRID GENERATION
-------------------

General Integration Accuracy     IntAcc      ...  4.670
Radial Grid Type                 RadialGrid  ... Gauss-Chebyshev
Angular Grid (max. acc.)         AngularGrid ... Lebedev-302
Angular grid pruning method      GridPruning ... 3 (G Style)
Weight generation scheme         WeightScheme... Becke
Basis function cutoff            BFCut       ...    1.0000e-11
Integration weight cutoff        WCut        ...    1.0000e-14
Grids for H and He will be reduced by one unit

# of grid points (after initial pruning)     ...  13000 (   0.0 sec)
# of grid points (after weights+screening)   ...  12940 (   0.0 sec)
nearest neighbour list constructed           ...    0.0 sec
Grid point re-assignment to atoms done       ...    0.0 sec
Grid point division into batches done        ...    0.1 sec
Reduced shell lists constructed in    0.1 sec

Total number of grid points                  ...    12940
Total number of batches                      ...      203
Average number of points per batch           ...       63
Average number of grid points per atom       ...     4313
Average number of shells per batch           ...    14.90 (46.56%)
Average number of basis functions per batch  ...    38.30 (41.63%)
Average number of large shells per batch     ...    10.80 (72.48%)
Average number of large basis fcns per batch ...    27.40 (71.54%)
Maximum spatial batch extension              ...  13.13, 16.88, 13.88 au
Average spatial batch extension              ...   0.51,  0.54,  0.54 au

Time for grid setup =    0.076 sec

--------------
SCF ITERATIONS
--------------
ITER       Energy         Delta-E        Max-DP      RMS-DP      [F,P]     Damp
               ***  Starting incremental Fock matrix formation  ***
  0    -76.2316029385   0.000000000000 0.00351282  0.00012670  0.0205092 0.7000
                      *** Initiating the SOSCF procedure ***
                      *** Re-Reading the Fockian *** 
                      *** Removing any level shift *** 
ITER      Energy       Delta-E        Grad      Rot      Max-DP    RMS-DP
  1    -76.23200718  -0.0004042411  0.002610  0.002610  0.007453  0.000316
               *** Restarting incremental Fock matrix formation ***
  2    -76.23239932  -0.0003921446  0.008740  0.034192  0.018824  0.000701
  3    -76.22744102   0.0049583056  0.035774  0.030732  0.015910  0.000564
  4    -76.23272919  -0.0052881714  0.000348  0.000490  0.000340  0.000014
  5    -76.23273015  -0.0000009552  0.000206  0.000176  0.000105  0.000004
  6    -76.23273043  -0.0000002802  0.000009  0.000017  0.000014  0.000000
                 **** Energy Check signals convergence ****
              ***Rediagonalizing the Fockian in SOSCF/NRSCF***

               *****************************************************
               *                     SUCCESS                       *
               *           SCF CONVERGED AFTER   7 CYCLES          *
               *****************************************************

Total Energy       :          -76.23273043 Eh           -2074.39806 eV
  Last Energy change         ...   -6.1534e-10  Tolerance :   1.0000e-08
  Last MAX-Density change    ...    2.7232e-06  Tolerance :   1.0000e-07
             **** THE GBW FILE WAS UPDATED (01_H2O.gbw) ****
             **** DENSITY FILE WAS UPDATED (01_H2O.scfp) ****
             **** ENERGY FILE WAS UPDATED (01_H2O.en.tmp) ****
             **** THE GBW FILE WAS UPDATED (01_H2O.gbw) ****
             **** DENSITY FILE WAS UPDATED (01_H2O.scfp) ****
Total SCF time: 0 days 0 hours 0 min 1 sec 


-------------------------------------------------------------------------------
                          DFT DISPERSION CORRECTION                            
                                                                               
                              DFTD3 V3.1  Rev 1                                
                          USING Becke-Johnson damping                          
-------------------------------------------------------------------------------
-------------------------   ----------------
Dispersion correction           -0.000700730
-------------------------   ----------------


-------------------------   --------------------
FINAL SINGLE POINT ENERGY       -76.233431156152
-------------------------   --------------------



           ************************************************************
           *        Program running with 24 parallel MPI-processes    *
           *              working on a common directory               *
           ************************************************************
------------------------------------------------------------------------------
                         ORCA SCF GRADIENT CALCULATION
------------------------------------------------------------------------------

Gradient of the Kohn-Sham DFT energy:
Kohn-Sham wavefunction type      ... RKS
Hartree-Fock exchange scaling    ...    0.100
Number of operators              ...    1
Number of atoms                  ...    3
Basis set dimensions             ...   92
Integral neglect threshold       ... 2.5e-11
Integral primitive cutoff        ... 2.5e-12

Nuclear repulsion gradient       ... done
One Electron Gradient            ... done
Pre-screening matrix             ... done
Starting the two electron gradient:
Two electron gradient done
Exchange-correlation gradient    ... done
Dispersion correction            ... done

------------------
CARTESIAN GRADIENT
------------------

   1   O   :   -0.000000001   -0.000000000    0.123415189
   2   H   :   -0.000000001   -0.082457388   -0.061807668
   3   H   :    0.000000000    0.082457381   -0.061807665

Difference to translation invariance:
           :   -0.0000000011   -0.0000000064   -0.0002001437

Norm of the cartesian gradient     ...    0.1909715287
RMS gradient                       ...    0.0636571762
MAX gradient                       ...    0.1234151893

-------
TIMINGS
-------

Total SCF gradient time            ...        0.345 sec

One electron gradient       ....       0.001 sec  (  0.2%)
Prescreening matrices       ....       0.011 sec  (  3.2%)
Two electron gradient       ....       0.124 sec  ( 36.0%)
XC gradient                 ....       0.019 sec  (  5.5%)
------------------------------------------------------------------------------
                         ORCA GEOMETRY RELAXATION STEP
------------------------------------------------------------------------------

Reading the OPT-File                    .... done
Getting information on internals        .... done
Copying old internal coords+grads       .... done
Making the new internal coordinates     .... (new redundants).... done
Validating the new internal coordinates .... (new redundants).... done
Calculating the B-matrix                .... done
Calculating the G,G- and P matrices     .... done
Transforming gradient to internals      .... done
Projecting the internal gradient        .... done
Number of atoms                         ....   3
Number of internal coordinates          ....   3
Current Energy                          ....   -76.233431156 Eh
Current gradient norm                   ....     0.190971529 Eh/bohr
Maximum allowed component of the step   ....  0.300
Current trust radius                    ....  0.300
Updating the Hessian (BFGS)             .... done
Forming the augmented Hessian           .... done
Diagonalizing the augmented Hessian     .... done
Last element of RFO vector              ....  0.654765632
Lowest eigenvalues of augmented Hessian:
 -0.168878585  0.022731116  0.123985927
Length of the computed step             ....  1.154354983
Warning: the length of the step is outside the trust region - taking restricted step instead
The input lambda is                     ....    -0.168879
   iter:   1  x=   -0.227947  g=   21.035559 f(x)=     1.242535
   iter:   2  x=   -0.307353  g=    6.672875 f(x)=     0.529867
   iter:   3  x=   -0.400737  g=    2.294241 f(x)=     0.214246
   iter:   4  x=   -0.483087  g=    0.928092 f(x)=     0.076428
   iter:   5  x=   -0.523305  g=    0.499191 f(x)=     0.020077
   iter:   6  x=   -0.529673  g=    0.384196 f(x)=     0.002447
   iter:   7  x=   -0.529803  g=    0.369336 f(x)=     0.000048
   iter:   8  x=   -0.529803  g=    0.369043 f(x)=     0.000000
   iter:   9  x=   -0.529803  g=    0.369043 f(x)=     0.000000
The output lambda is                    ....    -0.529803 (9 iterations)
The final length of the internal step   ....  0.300000000
Converting the step to cartesian space:
 Initial RMS(Int)=    0.1732050808
Transforming coordinates:
 Iter   0:  RMS(Cart)=    0.0937432847 RMS(Int)=    0.1730580065
 Iter   1:  RMS(Cart)=    0.0011395074 RMS(Int)=    0.0013860936
 Iter   2:  RMS(Cart)=    0.0000807300 RMS(Int)=    0.0001082747
 Iter   3:  RMS(Cart)=    0.0000058539 RMS(Int)=    0.0000078205
 Iter   4:  RMS(Cart)=    0.0000004241 RMS(Int)=    0.0000005668
 Iter   5:  RMS(Cart)=    0.0000000307 RMS(Int)=    0.0000000411
done
Storing new coordinates                 .... done

                                .--------------------.
          ----------------------|Geometry convergence|-------------------------
          Item                value                   Tolerance       Converged
          ---------------------------------------------------------------------
          Energy change      -0.0420534339            0.0000050000      NO
          RMS gradient        0.0844974161            0.0001000000      NO
          MAX gradient        0.1028740620            0.0003000000      NO
          RMS step            0.1732050808            0.0020000000      NO
          MAX step            0.2111506174            0.0040000000      NO
          ........................................................
          Max(Bonds)      0.1117      Max(Angles)    1.65
          Max(Dihed)        0.00      Max(Improp)    0.00
          ---------------------------------------------------------------------

The optimization has not yet converged - more geometry cycles are needed


    ---------------------------------------------------------------------------
                         Redundant Internal Coordinates
                            (Angstroem and degrees)

        Definition                    Value    dE/dq     Step     New-Value
    ----------------------------------------------------------------------------
     1. B(H   1,O   0)                1.5890  0.102874 -0.1117    1.4772   
     2. B(H   2,O   0)                1.5890  0.102874 -0.1117    1.4772   
     3. A(H   1,O   0,H   2)          100.45  0.015915   -1.65     98.80   
    ----------------------------------------------------------------------------

         *************************************************************
         *                GEOMETRY OPTIMIZATION CYCLE   4            *
         *************************************************************
---------------------------------
CARTESIAN COORDINATES (ANGSTROEM)
---------------------------------
  O      0.000000   -0.000000    0.024508
  H      0.000000   -1.121625   -0.936828
  H      0.000000    1.121625   -0.936828

----------------------------
CARTESIAN COORDINATES (A.U.)
----------------------------
  NO LB      ZA    FRAG     MASS         X           Y           Z
   0 O     8.0000    0    15.999    0.000000   -0.000000    0.046313
   1 H     1.0000    0     1.008    0.000000   -2.119564   -1.770349
   2 H     1.0000    0     1.008    0.000000    2.119564   -1.770349

--------------------------------
INTERNAL COORDINATES (ANGSTROEM)
--------------------------------
 O      0   0   0     0.000000000000     0.00000000     0.00000000
 H      1   0   0     1.477230306062     0.00000000     0.00000000
 H      1   2   0     1.477230314596    98.80075626     0.00000000

---------------------------
INTERNAL COORDINATES (A.U.)
---------------------------
 O      0   0   0     0.000000000000     0.00000000     0.00000000
 H      1   0   0     2.791560715185     0.00000000     0.00000000
 H      1   2   0     2.791560731313    98.80075626     0.00000000



           ************************************************************
           *        Program running with 24 parallel MPI-processes    *
           *              working on a common directory               *
           ************************************************************


           ************************************************************
           *        Program running with 24 parallel MPI-processes    *
           *              working on a common directory               *
           ************************************************************

Diagonalization of the overlap matrix:
Smallest eigenvalue                        ... 1.197e-03
Time for diagonalization                   ...    0.002 sec
Threshold for overlap eigenvalues          ... 1.000e-08
Number of eigenvalues below threshold      ... 0
Time for construction of square roots      ...    0.001 sec
Total time needed                          ...    0.003 sec

-------------------
DFT GRID GENERATION
-------------------

General Integration Accuracy     IntAcc      ...  4.670
Radial Grid Type                 RadialGrid  ... Gauss-Chebyshev
Angular Grid (max. acc.)         AngularGrid ... Lebedev-302
Angular grid pruning method      GridPruning ... 3 (G Style)
Weight generation scheme         WeightScheme... Becke
Basis function cutoff            BFCut       ...    1.0000e-11
Integration weight cutoff        WCut        ...    1.0000e-14
Grids for H and He will be reduced by one unit

# of grid points (after initial pruning)     ...  13000 (   0.0 sec)
# of grid points (after weights+screening)   ...  12930 (   0.0 sec)
nearest neighbour list constructed           ...    0.0 sec
Grid point re-assignment to atoms done       ...    0.0 sec
Grid point division into batches done        ...    0.0 sec
Reduced shell lists constructed in    0.0 sec

Total number of grid points                  ...    12930
Total number of batches                      ...      204
Average number of points per batch           ...       63
Average number of grid points per atom       ...     4310
Average number of shells per batch           ...    15.10 (47.19%)
Average number of basis functions per batch  ...    38.90 (42.28%)
Average number of large shells per batch     ...    10.90 (72.19%)
Average number of large basis fcns per batch ...    27.70 (71.21%)
Maximum spatial batch extension              ...  13.13, 16.88, 13.77 au
Average spatial batch extension              ...   0.50,  0.57,  0.54 au

Time for grid setup =    0.071 sec

--------------
SCF ITERATIONS
--------------
ITER       Energy         Delta-E        Max-DP      RMS-DP      [F,P]     Damp
               ***  Starting incremental Fock matrix formation  ***
  0    -76.2767800679   0.000000000000 0.00345083  0.00014289  0.0228442 0.7000
                      *** Initiating the SOSCF procedure ***
                      *** Re-Reading the Fockian *** 
                      *** Removing any level shift *** 
ITER      Energy       Delta-E        Grad      Rot      Max-DP    RMS-DP
  1    -76.27728560  -0.0005055310  0.003052  0.003052  0.008348  0.000372
               *** Restarting incremental Fock matrix formation ***
  2    -76.27798434  -0.0006987429  0.007970  0.025807  0.014792  0.000586
  3    -76.27494466   0.0030396813  0.027540  0.022566  0.012415  0.000453
  4    -76.27828695  -0.0033422934  0.000378  0.000513  0.000362  0.000014
  5    -76.27828806  -0.0000011065  0.000232  0.000192  0.000118  0.000005
  6    -76.27828844  -0.0000003803  0.000007  0.000016  0.000010  0.000000
                 **** Energy Check signals convergence ****
              ***Rediagonalizing the Fockian in SOSCF/NRSCF***

               *****************************************************
               *                     SUCCESS                       *
               *           SCF CONVERGED AFTER   7 CYCLES          *
               *****************************************************

Total Energy       :          -76.27828844 Eh           -2075.63775 eV
  Last Energy change         ...   -3.9958e-10  Tolerance :   1.0000e-08
  Last MAX-Density change    ...    1.9424e-06  Tolerance :   1.0000e-07
             **** THE GBW FILE WAS UPDATED (01_H2O.gbw) ****
             **** DENSITY FILE WAS UPDATED (01_H2O.scfp) ****
             **** ENERGY FILE WAS UPDATED (01_H2O.en.tmp) ****
             **** THE GBW FILE WAS UPDATED (01_H2O.gbw) ****
             **** DENSITY FILE WAS UPDATED (01_H2O.scfp) ****
Total SCF time: 0 days 0 hours 0 min 1 sec 


-------------------------------------------------------------------------------
                          DFT DISPERSION CORRECTION                            
                                                                               
                              DFTD3 V3.1  Rev 1                                
                          USING Becke-Johnson damping                          
-------------------------------------------------------------------------------
-------------------------   ----------------
Dispersion correction           -0.000702648
-------------------------   ----------------


-------------------------   --------------------
FINAL SINGLE POINT ENERGY       -76.278991088747
-------------------------   --------------------



           ************************************************************
           *        Program running with 24 parallel MPI-processes    *
           *              working on a common directory               *
           ************************************************************
------------------------------------------------------------------------------
                         ORCA SCF GRADIENT CALCULATION
------------------------------------------------------------------------------

Gradient of the Kohn-Sham DFT energy:
Kohn-Sham wavefunction type      ... RKS
Hartree-Fock exchange scaling    ...    0.100
Number of operators              ...    1
Number of atoms                  ...    3
Basis set dimensions             ...   92
Integral neglect threshold       ... 2.5e-11
Integral primitive cutoff        ... 2.5e-12

Nuclear repulsion gradient       ... done
One Electron Gradient            ... done
Pre-screening matrix             ... done
Starting the two electron gradient:
Two electron gradient done
Exchange-correlation gradient    ... done
Dispersion correction            ... done

------------------
CARTESIAN GRADIENT
------------------

   1   O   :   -0.000000003    0.000000001    0.136532338
   2   H   :    0.000000002   -0.087009127   -0.068359301
   3   H   :    0.000000000    0.087009136   -0.068359308

Difference to translation invariance:
           :   -0.0000000005    0.0000000102   -0.0001862715

Norm of the cartesian gradient     ...    0.2076734124
RMS gradient                       ...    0.0692244708
MAX gradient                       ...    0.1365323379

-------
TIMINGS
-------

Total SCF gradient time            ...        0.363 sec

One electron gradient       ....       0.001 sec  (  0.3%)
Prescreening matrices       ....       0.011 sec  (  3.0%)
Two electron gradient       ....       0.142 sec  ( 39.0%)
XC gradient                 ....       0.023 sec  (  6.3%)
------------------------------------------------------------------------------
                         ORCA GEOMETRY RELAXATION STEP
------------------------------------------------------------------------------

Reading the OPT-File                    .... done
Getting information on internals        .... done
Copying old internal coords+grads       .... done
Making the new internal coordinates     .... (new redundants).... done
Validating the new internal coordinates .... (new redundants).... done
Calculating the B-matrix                .... done
Calculating the G,G- and P matrices     .... done
Transforming gradient to internals      .... done
Projecting the internal gradient        .... done
Number of atoms                         ....   3
Number of internal coordinates          ....   3
Current Energy                          ....   -76.278991089 Eh
Current gradient norm                   ....     0.207673412 Eh/bohr
Maximum allowed component of the step   ....  0.300
Current trust radius                    ....  0.300
Updating the Hessian (BFGS)             .... done
Forming the augmented Hessian           .... done
Diagonalizing the augmented Hessian     .... done
Last element of RFO vector              ....  0.665858471
Lowest eigenvalues of augmented Hessian:
 -0.175648580  0.022731116  0.127845367
Length of the computed step             ....  1.120475461
Warning: the length of the step is outside the trust region - taking restricted step instead
The input lambda is                     ....    -0.175649
   iter:   1  x=   -0.240555  g=   17.956197 f(x)=     1.165465
   iter:   2  x=   -0.327214  g=    5.719982 f(x)=     0.495691
   iter:   3  x=   -0.427606  g=    1.984151 f(x)=     0.199193
   iter:   4  x=   -0.513354  g=    0.816494 f(x)=     0.070013
   iter:   5  x=   -0.552658  g=    0.450980 f(x)=     0.017725
   iter:   6  x=   -0.558196  g=    0.355745 f(x)=     0.001970
   iter:   7  x=   -0.558286  g=    0.344553 f(x)=     0.000031
   iter:   8  x=   -0.558286  g=    0.344374 f(x)=     0.000000
   iter:   9  x=   -0.558286  g=    0.344374 f(x)=     0.000000
The output lambda is                    ....    -0.558286 (9 iterations)
The final length of the internal step   ....  0.300000000
Converting the step to cartesian space:
 Initial RMS(Int)=    0.1732050808
Transforming coordinates:
 Iter   0:  RMS(Cart)=    0.0903752144 RMS(Int)=    0.1731418681
 Iter   1:  RMS(Cart)=    0.0008581776 RMS(Int)=    0.0010865291
 Iter   2:  RMS(Cart)=    0.0000675537 RMS(Int)=    0.0000901424
 Iter   3:  RMS(Cart)=    0.0000054443 RMS(Int)=    0.0000072381
 Iter   4:  RMS(Cart)=    0.0000004381 RMS(Int)=    0.0000005826
 Iter   5:  RMS(Cart)=    0.0000000353 RMS(Int)=    0.0000000469
done
Storing new coordinates                 .... done

                                .--------------------.
          ----------------------|Geometry convergence|-------------------------
          Item                value                   Tolerance       Converged
          ---------------------------------------------------------------------
          Energy change      -0.0455599326            0.0000050000      NO
          RMS gradient        0.0905571720            0.0001000000      NO
          MAX gradient        0.1105096364            0.0003000000      NO
          RMS step            0.1732050808            0.0020000000      NO
          MAX step            0.2116111485            0.0040000000      NO
          ........................................................
          Max(Bonds)      0.1120      Max(Angles)    1.20
          Max(Dihed)        0.00      Max(Improp)    0.00
          ---------------------------------------------------------------------

The optimization has not yet converged - more geometry cycles are needed


    ---------------------------------------------------------------------------
                         Redundant Internal Coordinates
                            (Angstroem and degrees)

        Definition                    Value    dE/dq     Step     New-Value
    ----------------------------------------------------------------------------
     1. B(H   1,O   0)                1.4772  0.110510 -0.1120    1.3653   
     2. B(H   2,O   0)                1.4772  0.110510 -0.1120    1.3653   
     3. A(H   1,O   0,H   2)           98.80  0.013306   -1.20     97.60   
    ----------------------------------------------------------------------------

         *************************************************************
         *                GEOMETRY OPTIMIZATION CYCLE   5            *
         *************************************************************
---------------------------------
CARTESIAN COORDINATES (ANGSTROEM)
---------------------------------
  O      0.000000    0.000000   -0.016847
[...]
  58   0.0000       3.361074        91.4595 
  59   0.0000       3.453379        93.9712 
  60   0.0000       3.665727        99.7495 
  61   0.0000       3.746876       101.9577 
  62   0.0000       3.899318       106.1058 
  63   0.0000       3.975773       108.1863 
  64   0.0000       4.024619       109.5155 
  65   0.0000       4.107512       111.7711 
  66   0.0000       4.109957       111.8376 
  67   0.0000       4.124555       112.2349 
  68   0.0000       4.205642       114.4413 
  69   0.0000       4.333933       117.9323 
  70   0.0000       4.477004       121.8255 
  71   0.0000       4.847461       131.9061 
  72   0.0000       4.850032       131.9761 
  73   0.0000       4.934036       134.2620 
  74   0.0000       4.950703       134.7155 
  75   0.0000       5.156534       140.3164 
  76   0.0000       5.344110       145.4206 
  77   0.0000       5.777945       157.2259 
  78   0.0000       6.116116       166.4280 
  79   0.0000       6.304691       171.5594 
  80   0.0000       6.489154       176.5789 
  81   0.0000       6.697989       182.2615 
  82   0.0000       6.779630       184.4831 
  83   0.0000       6.824928       185.7157 
  84   0.0000       6.843863       186.2310 
  85   0.0000       6.892503       187.5546 
  86   0.0000       6.916978       188.2205 
  87   0.0000       7.079931       192.6547 
  88   0.0000       7.453824       202.8289 
  89   0.0000       7.504580       204.2100 
  90   0.0000       8.321486       226.4391 
  91   0.0000      14.903137       405.5350 

                    ********************************
                    * MULLIKEN POPULATION ANALYSIS *
                    ********************************

-----------------------
MULLIKEN ATOMIC CHARGES
-----------------------
   0 O :   -0.342322
   1 H :    0.171160
   2 H :    0.171162
Sum of atomic charges:   -0.0000000

--------------------------------
MULLIKEN REDUCED ORBITAL CHARGES
--------------------------------
  0 O s       :     3.929017  s :     3.929017
      pz      :     1.408449  p :     4.405365
      px      :     1.849265
      py      :     1.147651
      dz2     :     0.002217  d :     0.007456
      dxz     :     0.001996
      dyz     :     0.004299
      dx2y2   :    -0.001056
      dxy     :    -0.000000
      f0      :    -0.000103  f :     0.000484
      f+1     :     0.000017
      f-1     :     0.000195
      f+2     :     0.000070
      f-2     :    -0.000000
      f+3     :     0.000059
      f-3     :     0.000246
  1 H s       :     0.701114  s :     0.701114
      pz      :     0.029878  p :     0.108606
      px      :     0.062325
      py      :     0.016402
      dz2     :     0.003726  d :     0.019121
      dxz     :     0.003890
      dyz     :     0.001808
      dx2y2   :     0.001580
      dxy     :     0.008117
  2 H s       :     0.701112  s :     0.701112
      pz      :     0.029878  p :     0.108605
      px      :     0.062325
      py      :     0.016402
      dz2     :     0.003726  d :     0.019121
      dxz     :     0.003890
      dyz     :     0.001808
      dx2y2   :     0.001580
      dxy     :     0.008117


                     *******************************
                     * LOEWDIN POPULATION ANALYSIS *
                     *******************************

----------------------
LOEWDIN ATOMIC CHARGES
----------------------
   0 O :    1.026787
   1 H :   -0.513396
   2 H :   -0.513391

-------------------------------
LOEWDIN REDUCED ORBITAL CHARGES
-------------------------------
  0 O s       :     3.017348  s :     3.017348
      pz      :     1.305700  p :     3.870703
      px      :     1.421985
      py      :     1.143019
      dz2     :     0.000474  d :     0.069234
      dxz     :     0.000518
      dyz     :     0.050233
      dx2y2   :     0.018009
      dxy     :     0.000000
      f0      :     0.001747  f :     0.015927
      f+1     :     0.000010
      f-1     :     0.004949
      f+2     :     0.006942
      f-2     :     0.000000
      f+3     :     0.000190
      f-3     :     0.002088
  1 H s       :     0.591295  s :     0.591295
      pz      :     0.203334  p :     0.564399
      px      :     0.172463
      py      :     0.188601
      dz2     :     0.079250  d :     0.357702
      dxz     :     0.043691
      dyz     :     0.093689
      dx2y2   :     0.068577
      dxy     :     0.072495
  2 H s       :     0.591294  s :     0.591294
      pz      :     0.203333  p :     0.564395
      px      :     0.172462
      py      :     0.188600
      dz2     :     0.079250  d :     0.357701
      dxz     :     0.043691
      dyz     :     0.093689
      dx2y2   :     0.068577
      dxy     :     0.072495


                      *****************************
                      * MAYER POPULATION ANALYSIS *
                      *****************************

  NA   - Mulliken gross atomic population
  ZA   - Total nuclear charge
  QA   - Mulliken gross atomic charge
  VA   - Mayer's total valence
  BVA  - Mayer's bonded valence
  FA   - Mayer's free valence

  ATOM       NA         ZA         QA         VA         BVA        FA
  0 O      8.3423     8.0000    -0.3423     2.0409     2.0409    -0.0000
  1 H      0.8288     1.0000     0.1712     1.0635     1.0635     0.0000
  2 H      0.8288     1.0000     0.1712     1.0635     1.0635     0.0000

  Mayer bond orders larger than 0.100000
B(  0-O ,  1-H ) :   1.0205 B(  0-O ,  2-H ) :   1.0205 

-------
TIMINGS
-------

Total SCF time: 0 days 0 hours 0 min 0 sec 

Total time                  ....       0.605 sec
Sum of individual times     ....       0.377 sec  ( 62.3%)

Fock matrix formation       ....       0.290 sec  ( 47.9%)
  XC integration            ....       0.053 sec  ( 18.3% of F)
    Basis function eval.    ....       0.002 sec  (  4.6% of XC)
    Density eval.           ....       0.003 sec  (  5.4% of XC)
    XC-Functional eval.     ....       0.002 sec  (  3.7% of XC)
    XC-Potential eval.      ....       0.007 sec  ( 12.3% of XC)
Diagonalization             ....       0.001 sec  (  0.2%)
Density matrix formation    ....       0.001 sec  (  0.1%)
Population analysis         ....       0.002 sec  (  0.4%)
Initial guess               ....       0.005 sec  (  0.8%)
Orbital Transformation      ....       0.000 sec  (  0.0%)
Orbital Orthonormalization  ....       0.002 sec  (  0.4%)
DIIS solution               ....       0.000 sec  (  0.0%)
SOSCF solution              ....       0.001 sec  (  0.1%)
Grid generation             ....       0.078 sec  ( 12.8%)


-------------------------------------------------------------------------------
                          DFT DISPERSION CORRECTION                            
                                                                               
                              DFTD3 V3.1  Rev 1                                
                          USING Becke-Johnson damping                          
-------------------------------------------------------------------------------
The TPSSH functional is recognized
Active option DFTDOPT                   ...         4   

molecular C6(AA) [au] = 44.534892 


            DFT-D V3
 parameters
 s6 scaling factor         :     1.0000 
 a1 scaling factor         :     0.4529 
 s8 scaling factor         :     2.2382 
 a2 scaling factor         :     4.6550 
 ad hoc parameters k1-k3   :    16.0000     1.3333    -4.0000 

 Edisp/kcal,au: -0.231297855108  -0.000368596555 
 E6   /kcal   :  -0.128058412 
 E8   /kcal   :  -0.103239443 
 % E8         :  44.634846754 

-------------------------   ----------------
Dispersion correction           -0.000368597
-------------------------   ----------------


-------------------------   --------------------
FINAL SINGLE POINT ENERGY       -76.458557975069
-------------------------   --------------------

                                *** OPTIMIZATION RUN DONE ***

                            ***************************************
                            *     ORCA property calculations      *
                            ***************************************

                                    ---------------------
                                    Active property flags
                                    ---------------------
   (+) Dipole Moment


------------------------------------------------------------------------------
                       ORCA ELECTRIC PROPERTIES CALCULATION
------------------------------------------------------------------------------

Dipole Moment Calculation                       ... on
Quadrupole Moment Calculation                   ... off
Polarizability Calculation                      ... off
GBWName                                         ... 01_H2O.gbw
Electron density file                           ... 01_H2O.scfp
The origin for moment calculation is the CENTER OF MASS  = ( 0.000000, -0.000001 -0.545410)

-------------
DIPOLE MOMENT
-------------
                                X             Y             Z
Electronic contribution:     -0.00000      -0.00000       0.26261
Nuclear contribution   :      0.00000       0.00000      -0.98355
                        -----------------------------------------
Total Dipole Moment    :     -0.00000      -0.00000      -0.72095
                        -----------------------------------------
Magnitude (a.u.)       :      0.72095
Magnitude (Debye)      :      1.83250



--------------------
Rotational spectrum 
--------------------
 
Rotational constants in cm-1:    26.973377    14.399361     9.387810 
Rotational constants in MHz : 808641.486405 431681.982260 281439.453988 

 Dipole components along the rotational axes: 
x,y,z [a.u.] :    -0.000003    -0.720945    -0.000000 
x,y,z [Debye]:    -0.000008    -1.832497    -0.000000 

 

----------------------------------------------------------------------------
                           ORCA NUMERICAL FREQUENCIES
                              (24-process run)
----------------------------------------------------------------------------

Number of atoms                ... 3
Central differences            ... used
Number of displacements        ... 18
Numerical increment            ... 5.000e-03 bohr
IR-spectrum generation         ... on
Raman-spectrum generation      ... off
Surface Crossing Hessian       ... off

 WARNING: There are more processes than displacements to do
  ====> : Reducing number of processes to   9

The output will be reduced. Please look at the following files:
SCF program output             ... >01_H2O.lastscf
Integral program output        ... >01_H2O.lastint
Gradient program output        ... >01_H2O.lastgrad
Dipole moment program output   ... >01_H2O.lastmom
AutoCI program output          ... >01_H2O.lastautoci


         <<< Energy and Gradient at the input geometry >>>

        <<< Energy and Gradient at displaced geometries >>>
             <<<Displacing   1/coordinate 1 (+)>>>
             <<<Displacing   1/coordinate 3 (+)>>>
             <<<Displacing   3/coordinate 2 (+)>>>
             <<<Displacing   2/coordinate 2 (+)>>>
             <<<Displacing   3/coordinate 1 (+)>>>
             <<<Displacing   1/coordinate 2 (+)>>>
             <<<Displacing   2/coordinate 3 (+)>>>
             <<<Displacing   3/coordinate 3 (+)>>>
             <<<Displacing   2/coordinate 1 (+)>>>
             <<<Displacing   3/coordinate 2 (-)>>>
             <<<Displacing   2/coordinate 3 (-)>>>
             <<<Displacing   1/coordinate 2 (-)>>>
             <<<Displacing   2/coordinate 2 (-)>>>
             <<<Displacing   1/coordinate 3 (-)>>>
             <<<Displacing   3/coordinate 3 (-)>>>
             <<<Displacing   2/coordinate 1 (-)>>>
             <<<Displacing   3/coordinate 1 (-)>>>
             <<<Displacing   1/coordinate 1 (-)>>>

-----------------------
VIBRATIONAL FREQUENCIES
-----------------------

Scaling factor for frequencies =  1.000000000 (already applied!)

   0:         0.00 cm**-1
   1:         0.00 cm**-1
   2:         0.00 cm**-1
   3:         0.00 cm**-1
   4:         0.00 cm**-1
   5:         0.00 cm**-1
   6:      1643.79 cm**-1
   7:      3764.76 cm**-1
   8:      3868.22 cm**-1


------------
NORMAL MODES
------------

These modes are the cartesian displacements weighted by the diagonal matrix
M(i,i)=1/sqrt(m[i]) where m[i] is the mass of the displaced atom
Thus, these vectors are normalized but *not* orthogonal

                  0          1          2          3          4          5    
      0       0.000000   0.000000   0.000000   0.000000   0.000000   0.000000
      1       0.000000   0.000000   0.000000   0.000000   0.000000   0.000000
      2       0.000000   0.000000   0.000000   0.000000   0.000000   0.000000
      3       0.000000   0.000000   0.000000   0.000000   0.000000   0.000000
      4       0.000000   0.000000   0.000000   0.000000   0.000000   0.000000
      5       0.000000   0.000000   0.000000   0.000000   0.000000   0.000000
      6       0.000000   0.000000   0.000000   0.000000   0.000000   0.000000
      7       0.000000   0.000000   0.000000   0.000000   0.000000   0.000000
      8       0.000000   0.000000   0.000000   0.000000   0.000000   0.000000
                   6          7          8    
      0       0.000000   0.000000   0.000000
      1      -0.000000   0.000012  -0.070242
      2       0.070905  -0.049594  -0.000009
      3       0.000000   0.000000   0.000000
      4       0.425265   0.586308   0.557545
      5      -0.562705   0.393506   0.432260
      6       0.000000   0.000000   0.000000
      7      -0.425264  -0.586494   0.557343
      8      -0.562704   0.393652  -0.432123


-----------
IR SPECTRUM  
-----------

 Mode    freq (cm**-1)   T**2         TX         TY         TZ
-------------------------------------------------------------------
   6:      1643.79   70.282858  (  0.000003  -0.000006  -8.383487)
   7:      3764.76    2.571959  (  0.000001  -0.001183   1.603732)
   8:      3868.22   49.585964  ( -0.000003   7.041730   0.000268)

The first frequency considered to be a vibration is 6
The total number of vibrations considered is 3


--------------------------
THERMOCHEMISTRY AT 298.15K
--------------------------

Temperature         ... 298.15 K
Pressure            ... 1.00 atm
Total Mass          ... 18.02 AMU

Throughout the following assumptions are being made:
  (1) The electronic state is orbitally nondegenerate
  (2) There are no thermally accessible electronically excited states
  (3) Hindered rotations indicated by low frequency modes are not
      treated as such but are treated as vibrations and this may
      cause some error
  (4) All equations used are the standard statistical mechanics
      equations for an ideal gas
  (5) All vibrations are strictly harmonic

freq.    1643.79  E(vib)   ...       0.00 
freq.    3764.76  E(vib)   ...       0.00 
freq.    3868.22  E(vib)   ...       0.00 

------------
INNER ENERGY
------------

The inner energy is: U= E(el) + E(ZPE) + E(vib) + E(rot) + E(trans)
    E(el)   - is the total energy from the electronic structure calculation
              = E(kin-el) + E(nuc-el) + E(el-el) + E(nuc-nuc)
    E(ZPE)  - the the zero temperature vibrational energy from the frequency calculation
    E(vib)  - the the finite temperature correction to E(ZPE) due to population
              of excited vibrational states
    E(rot)  - is the rotational thermal energy
    E(trans)- is the translational thermal energy

Summary of contributions to the inner energy U:
Electronic energy                ...    -76.45855798 Eh
Zero point energy                ...      0.02113405 Eh      13.26 kcal/mol
Thermal vibrational correction   ...      0.00000269 Eh       0.00 kcal/mol
Thermal rotational correction    ...      0.00141627 Eh       0.89 kcal/mol
Thermal translational correction ...      0.00141627 Eh       0.89 kcal/mol
-----------------------------------------------------------------------
Total thermal energy                    -76.43458869 Eh


Summary of corrections to the electronic energy:
(perhaps to be used in another calculation)
Total thermal correction                  0.00283523 Eh       1.78 kcal/mol
Non-thermal (ZPE) correction              0.02113405 Eh      13.26 kcal/mol
-----------------------------------------------------------------------
Total correction                          0.02396928 Eh      15.04 kcal/mol


--------
ENTHALPY
--------

The enthalpy is H = U + kB*T
                kB is Boltzmann's constant
Total free energy                 ...    -76.43458869 Eh 
Thermal Enthalpy correction       ...      0.00094421 Eh       0.59 kcal/mol
-----------------------------------------------------------------------
Total Enthalpy                    ...    -76.43364449 Eh


Note: Rotational entropy computed according to Herzberg 
Infrared and Raman Spectra, Chapter V,1, Van Nostrand Reinhold, 1945 
Point Group:  Cs, Symmetry Number:   1  
Rotational constants in cm-1:    26.973377    14.399361     9.387810 

Vibrational entropy computed according to the QRRHO of S. Grimme
Chem.Eur.J. 2012 18 9955


-------
ENTROPY
-------

The entropy contributions are T*S = T*(S(el)+S(vib)+S(rot)+S(trans))
     S(el)   - electronic entropy
     S(vib)  - vibrational entropy
     S(rot)  - rotational entropy
     S(trans)- translational entropy
The entropies will be listed as mutliplied by the temperature to get
units of energy

Electronic entropy                ...      0.00000000 Eh      0.00 kcal/mol
Vibrational entropy               ...      0.00000303 Eh      0.00 kcal/mol
Rotational entropy                ...      0.00563899 Eh      3.54 kcal/mol
Translational entropy             ...      0.01644380 Eh     10.32 kcal/mol
-----------------------------------------------------------------------
Final entropy term                ...      0.02208582 Eh     13.86 kcal/mol

In case the symmetry of your molecule has not been determined correctly
or in case you have a reason to use a different symmetry number we print 
out the resulting rotational entropy values for sn=1,12 :
 --------------------------------------------------------
|  sn= 1 | S(rot)=       0.00563899 Eh      3.54 kcal/mol|
|  sn= 2 | S(rot)=       0.00498453 Eh      3.13 kcal/mol|
|  sn= 3 | S(rot)=       0.00460170 Eh      2.89 kcal/mol|
|  sn= 4 | S(rot)=       0.00433007 Eh      2.72 kcal/mol|
|  sn= 5 | S(rot)=       0.00411938 Eh      2.58 kcal/mol|
|  sn= 6 | S(rot)=       0.00394724 Eh      2.48 kcal/mol|
|  sn= 7 | S(rot)=       0.00380169 Eh      2.39 kcal/mol|
|  sn= 8 | S(rot)=       0.00367562 Eh      2.31 kcal/mol|
|  sn= 9 | S(rot)=       0.00356441 Eh      2.24 kcal/mol|
|  sn=10 | S(rot)=       0.00346493 Eh      2.17 kcal/mol|
|  sn=11 | S(rot)=       0.00337494 Eh      2.12 kcal/mol|
|  sn=12 | S(rot)=       0.00329278 Eh      2.07 kcal/mol|
 --------------------------------------------------------


-------------------
GIBBS FREE ENERGY
-------------------

The Gibbs free energy is G = H - T*S

Total enthalpy                    ...    -76.43364449 Eh 
Total entropy correction          ...     -0.02208582 Eh    -13.86 kcal/mol
-----------------------------------------------------------------------
Final Gibbs free energy         ...    -76.45573030 Eh

For completeness - the Gibbs free energy minus the electronic energy
G-E(el)                           ...      0.00282767 Eh      1.77 kcal/mol


Total Time for Numerical Frequencies  :        18.022 sec

Timings for individual modules:

Sum of individual times         ...       46.704 sec (=   0.778 min)
GTO integral calculation        ...       10.038 sec (=   0.167 min)  21.5 %
SCF iterations                  ...       25.524 sec (=   0.425 min)  54.7 %
SCF Gradient evaluation         ...       10.658 sec (=   0.178 min)  22.8 %
Geometry relaxation             ...        0.484 sec (=   0.008 min)   1.0 %
                             ****ORCA TERMINATED NORMALLY****
TOTAL RUN TIME: 0 days 0 hours 1 minutes 4 seconds 158 msec
