
                                 *****************
                                 * O   R   C   A *
                                 *****************

           --- An Ab Initio, DFT and Semiempirical electronic structure package ---

                  #######################################################
                  #                        -***-                        #
                  #          Department of theory and spectroscopy      #
                  #               Directorship: Frank Neese             #
                  #        Max Planck Institute fuer Kohlenforschung    #
                  #                Kaiser Wilhelm Platz 1               #
                  #                 D-45470 Muelheim/Ruhr               #
                  #                      Germany                        #
                  #                                                     #
                  #                  All rights reserved                #
                  #                        -***-                        #
                  #######################################################


                         Program Version 4.2.0 -  RELEASE  -


 With contributions from (in alphabetic order):
   Daniel Aravena         : Magnetic Suceptibility
   Michael Atanasov       : Ab Initio Ligand Field Theory (pilot matlab implementation)
   Alexander A. Auer      : GIAO ZORA, VPT2
   Ute Becker             : Parallelization
   Giovanni Bistoni       : ED, misc. LED, open-shell LED, HFLED
   Martin Brehm           : Molecular dynamics
   Dmytro Bykov           : SCF Hessian
   Vijay G. Chilkuri      : MRCI spin determinant printing, contributions to CSF-ICE
   Dipayan Datta          : RHF DLPNO-CCSD density
   Achintya Kumar Dutta   : EOM-CC, STEOM-CC
   Dmitry Ganyushin       : Spin-Orbit,Spin-Spin,Magnetic field MRCI
   Miquel Garcia          : C-PCM Hessian, Gaussian charge scheme
   Yang Guo               : DLPNO-NEVPT2, CIM, IAO-localization
   Andreas Hansen         : Spin unrestricted coupled pair/coupled cluster methods
   Benjamin Helmich-Paris : CASSCF linear response (MC-RPA)
   Lee Huntington         : MR-EOM, pCC
   Robert Izsak           : Overlap fitted RIJCOSX, COSX-SCS-MP3, EOM
   Christian Kollmar      : KDIIS, OOCD, Brueckner-CCSD(T), CCSD density
   Simone Kossmann        : Meta GGA functionals, TD-DFT gradient, OOMP2, MP2 Hessian
   Martin Krupicka        : AUTO-CI
   Lucas Lang             : DCDCAS
   Dagmar Lenk            : GEPOL surface, SMD
   Dimitrios Liakos       : Extrapolation schemes; Compound Job, initial MDCI parallelization
   Dimitrios Manganas     : Further ROCIS development; embedding schemes
   Dimitrios Pantazis     : SARC Basis sets
   Taras Petrenko         : DFT Hessian,TD-DFT gradient, ASA, ECA, R-Raman, ABS, FL, XAS/XES, NRVS
   Peter Pinski           : DLPNO-MP2, DLPNO-MP2 Gradient
   Christoph Reimann      : Effective Core Potentials
   Marius Retegan         : Local ZFS, SOC
   Christoph Riplinger    : Optimizer, TS searches, QM/MM, DLPNO-CCSD(T), (RO)-DLPNO pert. Triples
   Tobias Risthaus        : Range-separated hybrids, TD-DFT gradient, RPA, STAB
   Michael Roemelt        : Original ROCIS implementation
   Masaaki Saitow         : Open-shell DLPNO-CCSD energy and density
   Barbara Sandhoefer     : DKH picture change effects
   Avijit Sen             : IP-ROCIS
   Kantharuban Sivalingam : CASSCF convergence, NEVPT2, FIC-MRCI
   Bernardo de Souza      : ESD, SOC TD-DFT
   Georgi Stoychev        : AutoAux, RI-MP2 NMR
   Willem Van den Heuvel  : Paramagnetic NMR
   Boris Wezisla          : Elementary symmetry handling
   Frank Wennmohs         : Technical directorship


 We gratefully acknowledge several colleagues who have allowed us to
 interface, adapt or use parts of their codes:
   Stefan Grimme, W. Hujo, H. Kruse,             : VdW corrections, initial TS optimization,
                  C. Bannwarth                     DFT functionals, gCP, sTDA/sTD-DF
   Ed Valeev, F. Pavosevic, A. Kumar             : LibInt (2-el integral package), F12 methods
   Garnet Chan, S. Sharma, J. Yang, R. Olivares  : DMRG
   Ulf Ekstrom                                   : XCFun DFT Library
   Mihaly Kallay                                 : mrcc  (arbitrary order and MRCC methods)
   Andreas Klamt, Michael Diedenhofen            : otool_cosmo (COSMO solvation model)
   Jiri Pittner, Ondrej Demel                    : Mk-CCSD
   Frank Weinhold                                : gennbo (NPA and NBO analysis)
   Christopher J. Cramer and Donald G. Truhlar   : smd solvation model
   Lars Goerigk                                  : TD-DFT with DH, B97 family of functionals
   V. Asgeirsson, H. Jonsson                     : NEB implementation
   FAccTs GmbH                                   : IRC, NEB, NEB-TS, Multilevel, MM, QM/MM, CI optimization
   S Lehtola, MJT Oliveira, MAL Marques          : LibXC Library


 Your calculation uses the libint2 library for the computation of 2-el integrals
 For citations please refer to: http://libint.valeyev.net

 Your ORCA version has been built with support for libXC version: 4.2.3
 For citations please refer to: https://tddft.org/programs/libxc/

 This ORCA versions uses:
   CBLAS   interface :  Fast vector & matrix operations
   LAPACKE interface :  Fast linear algebra routines
   SCALAPACK package :  Parallel linear algebra routines


Your calculation utilizes the atom-pairwise dispersion correction
with the Becke-Johnson damping scheme (D3BJ)
Cite in your paper:
S.Grimme, S.Ehrlich, L.Goerigk, J Comput Chem, (2011), 32, 1456–1465 
S.Grimme, J.Antony, S.Ehrlich and H.Krieg, J.Chem.Phys., 132, (2010), 154104 
   

----- Orbital basis set information -----
Your calculation utilizes the basis: aug-cc-pV(T+d)Z 
             Al - Ar: T.H. Dunning, Jr., K. A. Peterson and A. K. Wilson, J. Chem. Phys.
                      114, 9244 (2001)

----- AuxJK basis set information -----
Your calculation utilizes the auxiliary basis: def2/JK
   H-Ba, Hf-Rn: F. Weigend, J. Comput. Chem. 29, 167 (2008).

================================================================================
                                        WARNINGS
                       Please study these warnings very carefully!
================================================================================


WARNING: Geometry Optimization
  ===> : Switching off AutoStart
         For restart on a previous wavefunction, please use MOREAD

INFO   : the flag for use of LIBINT has been found!

================================================================================
                                       INPUT FILE
================================================================================
NAME = 02_H2O_2.in
|  1> #
|  2> # 02_H2O_2 tpssh/aug-cc-pvt(+d)z
|  3> #
|  4> ! tpssh d3bj aug-cc-pvt(+d)z def2/jk grid4 nofinalgrid opt xyzfile numfreq
|  5> 
|  6> *xyz 0 1
|  7> O	0.12629641	2.81863838	0
|  8> H	-1.55012056	3.50228598	0
|  9> H	-0.11213325	1.01044862	0
| 10> O	-0.11743248	-2.68035303	0
| 11> H	0.7607884	-3.35371171	-1.4365769
| 12> H	0.7607884	-3.35371171	1.4365769
| 13> *
| 14> 
| 15> %maxcore 5000
| 16> 
| 17> %pal
| 18> nprocs 24
| 19> end
| 20> 
| 21> 
| 22>                          ****END OF INPUT****
================================================================================

                       *****************************
                       * Geometry Optimization Run *
                       *****************************

Geometry optimization settings:
Update method            Update   .... BFGS
Choice of coordinates    CoordSys .... Z-matrix Internals
Initial Hessian          InHess   .... Almoef's Model

Convergence Tolerances:
Energy Change            TolE     ....  5.0000e-06 Eh
Max. Gradient            TolMAXG  ....  3.0000e-04 Eh/bohr
RMS Gradient             TolRMSG  ....  1.0000e-04 Eh/bohr
Max. Displacement        TolMAXD  ....  4.0000e-03 bohr
RMS Displacement         TolRMSD  ....  2.0000e-03 bohr
Strict Convergence                ....  False
------------------------------------------------------------------------------
                        ORCA OPTIMIZATION COORDINATE SETUP
------------------------------------------------------------------------------

The optimization will be done in new redundant internal coordinates
Making redundant internal coordinates   ...  (new redundants) done
Evaluating the initial hessian          ...  (Almloef) done
Evaluating the coordinates              ...  done
Calculating the B-matrix                .... done
Calculating the G-matrix                .... done
Diagonalizing the G-matrix              .... done
The first mode is                       ....    1
The number of degrees of freedom        ....   12

    -----------------------------------------------------------------
                    Redundant Internal Coordinates


    -----------------------------------------------------------------
         Definition                    Initial Value    Approx d2E/dq
    -----------------------------------------------------------------
      1. B(H   1,O   0)                  1.8105         0.022862   
      2. B(H   2,O   0)                  1.8238         0.021765   
      3. B(O   3,H   2)                  3.6908         0.000023   
      4. B(H   4,O   3)                  1.8134         0.022616   
      5. B(H   5,O   3)                  1.8134         0.022616   
      6. A(H   1,O   0,H   2)          104.6740         0.144976   
      7. A(O   0,H   2,O   3)          172.5705         0.100722   
      8. A(H   2,O   3,H   4)          111.7543         0.100824   
      9. A(H   4,O   3,H   5)          104.7829         0.145326   
     10. A(H   2,O   3,H   5)          111.7543         0.100824   
     11. D(O   3,H   2,O   0,H   1)    180.0000         0.001722   
     12. D(H   5,O   3,H   2,O   0)     58.5333         0.001500   
     13. D(H   4,O   3,H   2,O   0)    -58.5333         0.001500   
    -----------------------------------------------------------------

Number of atoms                         .... 6
Number of degrees of freedom            .... 13

         *************************************************************
         *                GEOMETRY OPTIMIZATION CYCLE   1            *
         *************************************************************
---------------------------------
CARTESIAN COORDINATES (ANGSTROEM)
---------------------------------
  O      0.126296    2.818638    0.000000
  H     -1.550121    3.502286    0.000000
  H     -0.112133    1.010449    0.000000
  O     -0.117432   -2.680353    0.000000
  H      0.760788   -3.353712   -1.436577
  H      0.760788   -3.353712    1.436577

----------------------------
CARTESIAN COORDINATES (A.U.)
----------------------------
  NO LB      ZA    FRAG     MASS         X           Y           Z
   0 O     8.0000    0    15.999    0.238666    5.326455    0.000000
   1 H     1.0000    0     1.008   -2.929303    6.618361    0.000000
   2 H     1.0000    0     1.008   -0.211901    1.909471    0.000000
   3 O     8.0000    0    15.999   -0.221915   -5.065133    0.000000
   4 H     1.0000    0     1.008    1.437682   -6.337597   -2.714737
   5 H     1.0000    0     1.008    1.437682   -6.337597    2.714737

--------------------------------
INTERNAL COORDINATES (ANGSTROEM)
--------------------------------
 O      0   0   0     0.000000000000     0.00000000     0.00000000
 H      1   0   0     1.810455163292     0.00000000     0.00000000
 H      1   2   0     1.823841799865   104.67403357     0.00000000
 O      3   1   2     3.690805454299   172.57052396   180.00000000
 H      4   3   1     1.813404812945   111.75429995   301.46668203
 H      4   3   1     1.813404812945   111.75429995    58.53331797

---------------------------
INTERNAL COORDINATES (A.U.)
---------------------------
 O      0   0   0     0.000000000000     0.00000000     0.00000000
 H      1   0   0     3.421264436365     0.00000000     0.00000000
 H      1   2   0     3.446561513344   104.67403357     0.00000000
 O      3   1   2     6.974611522207   172.57052396   180.00000000
 H      4   3   1     3.426838466401   111.75429995   301.46668203
 H      4   3   1     3.426838466401   111.75429995    58.53331797

---------------------
BASIS SET INFORMATION
---------------------
There are 2 groups of distinct atoms

 Group   1 Type O   : 19s6p3d2f contracted to 5s4p3d2f pattern {88111/3111/111/11}
 Group   2 Type H   : 6s3p2d contracted to 4s3p2d pattern {3111/111/11}

Atom   0O    basis set group =>   1
Atom   1H    basis set group =>   2
Atom   2H    basis set group =>   2
Atom   3O    basis set group =>   1
Atom   4H    basis set group =>   2
Atom   5H    basis set group =>   2
----------------------------------
AUXILIARY/JK BASIS SET INFORMATION
----------------------------------
There are 2 groups of distinct atoms

 Group   1 Type O   : 14s10p6d2f1g contracted to 10s8p4d2f1g pattern {5111111111/31111111/3111/11/1}
 Group   2 Type H   : 4s2p2d contracted to 2s2p2d pattern {31/11/11}

Atom   0O    basis set group =>   1
Atom   1H    basis set group =>   2
Atom   2H    basis set group =>   2
Atom   3O    basis set group =>   1
Atom   4H    basis set group =>   2
Atom   5H    basis set group =>   2


           ************************************************************
           *        Program running with 24 parallel MPI-processes    *
           *              working on a common directory               *
           ************************************************************
------------------------------------------------------------------------------
                           ORCA GTO INTEGRAL CALCULATION
------------------------------------------------------------------------------

                         BASIS SET STATISTICS AND STARTUP INFO

 # of primitive gaussian shells          ...  104
 # of primitive gaussian functions       ...  232
 # of contracted shells                  ...   64
 # of contracted basis functions         ...  184
 Highest angular momentum                ...    3
 Maximum contraction depth               ...    8
 Integral package used                   ... LIBINT
 Integral threshhold            Thresh   ...  2.500e-11
 Primitive cut-off              TCut     ...  2.500e-12


------------------------------ INTEGRAL EVALUATION ----------------------------


 * One electron integrals 
 Pre-screening matrix                    ... done
 Shell pair data                         ... done (   0.000 sec)



           ************************************************************
           *        Program running with 24 parallel MPI-processes    *
           *              working on a common directory               *
           ************************************************************
-------------------------------------------------------------------------------
                                 ORCA SCF
-------------------------------------------------------------------------------

------------
SCF SETTINGS
------------
Hamiltonian:
 Density Functional     Method          .... DFT(GTOs)
 Exchange Functional    Exchange        .... TPSS
 Correlation Functional Correlation     .... TPSS
 LDA part of GGA corr.  LDAOpt          .... PW91-LDA
 Gradients option       PostSCFGGA      .... off
 Hybrid DFT is turned on
   Fraction HF Exchange ScalHFX         ....  0.100000
   Scaling of DF-GGA-X  ScalDFX         ....  0.900000
   Scaling of DF-GGA-C  ScalDFC         ....  1.000000
   Scaling of DF-LDA-C  ScalLDAC        ....  1.000000
   Perturbative correction              ....  0.000000
   Density functional embedding theory  .... OFF
   NL short-range parameter             ....  5.200000


General Settings:
 Integral files         IntName         .... 02_H2O_2
 Hartree-Fock type      HFTyp           .... RHF
 Total Charge           Charge          ....    0
 Multiplicity           Mult            ....    1
 Number of Electrons    NEL             ....   20
 Basis Dimension        Dim             ....  184
 Nuclear Repulsion      ENuc            ....     19.3626333336 Eh

Convergence Acceleration:
 DIIS                   CNVDIIS         .... on
   Start iteration      DIISMaxIt       ....    12
   Startup error        DIISStart       ....  0.200000
   # of expansion vecs  DIISMaxEq       ....     5
   Bias factor          DIISBfac        ....   1.050
   Max. coefficient     DIISMaxC        ....  10.000
 Newton-Raphson         CNVNR           .... off
 SOSCF                  CNVSOSCF        .... on
   Start iteration      SOSCFMaxIt      ....   150
   Startup grad/error   SOSCFStart      ....  0.003300
 Level Shifting         CNVShift        .... on
   Level shift para.    LevelShift      ....    0.2500
   Turn off err/grad.   ShiftErr        ....    0.0010
 Zerner damping         CNVZerner       .... off
 Static damping         CNVDamp         .... on
   Fraction old density DampFac         ....    0.7000
   Max. Damping (<1)    DampMax         ....    0.9800
   Min. Damping (>=0)   DampMin         ....    0.0000
   Turn off err/grad.   DampErr         ....    0.1000
 Fernandez-Rico         CNVRico         .... off

SCF Procedure:
 Maximum # iterations   MaxIter         ....   125
 SCF integral mode      SCFMode         .... Direct
   Integral package                     .... LIBINT
 Reset frequency        DirectResetFreq ....    20
 Integral Threshold     Thresh          ....  2.500e-11 Eh
 Primitive CutOff       TCut            ....  2.500e-12 Eh

Convergence Tolerance:
 Convergence Check Mode ConvCheckMode   .... Total+1el-Energy
 Convergence forced     ConvForced      .... 0
 Energy Change          TolE            ....  1.000e-08 Eh
 1-El. energy change                    ....  1.000e-05 Eh
 Orbital Gradient       TolG            ....  1.000e-05
 Orbital Rotation angle TolX            ....  1.000e-05
 DIIS Error             TolErr          ....  5.000e-07


Diagonalization of the overlap matrix:
Smallest eigenvalue                        ... 2.067e-03
Time for diagonalization                   ...    0.019 sec
Threshold for overlap eigenvalues          ... 1.000e-08
Number of eigenvalues below threshold      ... 0
Time for construction of square roots      ...    0.003 sec
Total time needed                          ...    0.023 sec

-------------------
DFT GRID GENERATION
-------------------

General Integration Accuracy     IntAcc      ...  4.670
Radial Grid Type                 RadialGrid  ... Gauss-Chebyshev
Angular Grid (max. acc.)         AngularGrid ... Lebedev-302
Angular grid pruning method      GridPruning ... 3 (G Style)
Weight generation scheme         WeightScheme... Becke
Basis function cutoff            BFCut       ...    1.0000e-11
Integration weight cutoff        WCut        ...    1.0000e-14
Grids for H and He will be reduced by one unit

# of grid points (after initial pruning)     ...  26000 (   0.0 sec)
# of grid points (after weights+screening)   ...  25747 (   0.0 sec)
nearest neighbour list constructed           ...    0.0 sec
Grid point re-assignment to atoms done       ...    0.0 sec
Grid point division into batches done        ...    0.1 sec
Reduced shell lists constructed in    0.1 sec

Total number of grid points                  ...    25747
Total number of batches                      ...      405
Average number of points per batch           ...       63
Average number of grid points per atom       ...     4291
Average number of shells per batch           ...    26.33 (41.15%)
Average number of basis functions per batch  ...    67.33 (36.59%)
Average number of large shells per batch     ...    19.17 (72.78%)
Average number of large basis fcns per batch ...    46.83 (69.55%)
Maximum spatial batch extension              ...  12.44, 14.34, 16.88 au
Average spatial batch extension              ...   0.31,  0.35,  0.36 au

Time for grid setup =    0.139 sec

------------------------------
INITIAL GUESS: MODEL POTENTIAL
------------------------------
Loading Hartree-Fock densities                     ... done
Calculating cut-offs                               ... done
Setting up the integral package                    ... done
Initializing the effective Hamiltonian             ... done
Starting the Coulomb interaction                   ... done (   0.0 sec)
Reading the grid                                   ... done
Mapping shells                                     ... done
Starting the XC term evaluation                    ... done (   0.0 sec)
  promolecular density results
     # of electrons  =     19.998065321
     EX              =    -17.094578234
     EC              =     -0.572957010
     EX+EC           =    -17.667535243
Transforming the Hamiltonian                       ... done (   0.0 sec)
Diagonalizing the Hamiltonian                      ... done (   0.0 sec)
Back transforming the eigenvectors                 ... done (   0.0 sec)
Now organizing SCF variables                       ... done
                      ------------------
                      INITIAL GUESS DONE (   0.2 sec)
                      ------------------
--------------
SCF ITERATIONS
--------------
ITER       Energy         Delta-E        Max-DP      RMS-DP      [F,P]     Damp
               ***  Starting incremental Fock matrix formation  ***
  0   -151.7471022496   0.000000000000 0.09273028  0.00247770  0.4595733 0.7000
  1   -152.1054567409  -0.358354491273 0.04876951  0.00122921  0.0501627 0.7000
                               ***Turning on DIIS***
  2   -152.0816039374   0.023852803441 0.02740885  0.00059355  0.1914254 0.7000
  3   -152.1646032769  -0.082999339491 0.03546415  0.00116258  0.0779312 0.0000
  4   -152.2873661082  -0.122762831338 0.01175273  0.00027506  0.0915580 0.0000
  5   -152.2992972224  -0.011931114200 0.00712289  0.00016704  0.0488598 0.0000
  6   -152.3033770141  -0.004079791691 0.00357232  0.00009283  0.0227451 0.0000
  7   -152.3043526856  -0.000975671470 0.00144367  0.00003953  0.0091840 0.0000
  8   -152.3045171790  -0.000164493372 0.00066043  0.00001718  0.0041934 0.0000
                      *** Initiating the SOSCF procedure ***
                           *** Shutting down DIIS ***
                      *** Re-Reading the Fockian *** 
                      *** Removing any level shift *** 
ITER      Energy       Delta-E        Grad      Rot      Max-DP    RMS-DP
  9   -152.30454816  -0.0000309829  0.000550  0.000550  0.000567  0.000011
               *** Restarting incremental Fock matrix formation ***
 10   -152.30455426  -0.0000060964  0.001025  0.006201  0.002884  0.000053
 11   -152.30442631   0.0001279524  0.005768  0.005275  0.002464  0.000044
 12   -152.30455870  -0.0001323944  0.000079  0.000499  0.000232  0.000004
 13   -152.30455804   0.0000006569  0.000423  0.000383  0.000162  0.000003
 14   -152.30455874  -0.0000006927  0.000024  0.000058  0.000033  0.000001
                 **** Energy Check signals convergence ****
              ***Rediagonalizing the Fockian in SOSCF/NRSCF***

               *****************************************************
               *                     SUCCESS                       *
               *           SCF CONVERGED AFTER  15 CYCLES          *
               *****************************************************


----------------
TOTAL SCF ENERGY
----------------

Total Energy       :         -152.30455874 Eh           -4144.41774 eV

Components:
Nuclear Repulsion  :           19.36263333 Eh             526.88404 eV
Electronic Energy  :         -171.66719207 Eh           -4671.30178 eV
One Electron Energy:         -248.49950375 Eh           -6762.01527 eV
Two Electron Energy:           76.83231168 Eh            2090.71349 eV

Virial components:
Potential Energy   :         -302.69898620 Eh           -8236.85817 eV
Kinetic Energy     :          150.39442747 Eh            4092.44043 eV
Virial Ratio       :            2.01270081


DFT components:
N(Alpha)           :        9.999998983604 electrons
N(Beta)            :        9.999998983604 electrons
N(Total)           :       19.999997967207 electrons
E(X)               :      -15.537701302259 Eh       
E(C)               :       -0.595085832823 Eh       
E(XC)              :      -16.132787135082 Eh       
DFET-embed. en.    :        0.000000000000 Eh       

---------------
SCF CONVERGENCE
---------------

  Last Energy change         ...   -1.0613e-10  Tolerance :   1.0000e-08
  Last MAX-Density change    ...    2.5399e-05  Tolerance :   1.0000e-07
  Last RMS-Density change    ...    4.1299e-07  Tolerance :   5.0000e-09
  Last Orbital Gradient      ...    1.6617e-05  Tolerance :   1.0000e-05
  Last Orbital Rotation      ...    4.3519e-05  Tolerance :   1.0000e-05

             **** THE GBW FILE WAS UPDATED (02_H2O_2.gbw) ****
             **** DENSITY FILE WAS UPDATED (02_H2O_2.scfp) ****
             **** ENERGY FILE WAS UPDATED (02_H2O_2.en.tmp) ****
             **** THE GBW FILE WAS UPDATED (02_H2O_2.gbw) ****
             **** DENSITY FILE WAS UPDATED (02_H2O_2.scfp) ****
----------------
ORBITAL ENERGIES
----------------

  NO   OCC          E(Eh)            E(eV) 
   0   2.0000     -19.136659      -520.7350 
   1   2.0000     -19.122056      -520.3376 
   2   2.0000      -0.876588       -23.8532 
   3   2.0000      -0.861774       -23.4501 
   4   2.0000      -0.352744        -9.5986 
   5   2.0000      -0.337897        -9.1946 
   6   2.0000      -0.332591        -9.0503 
   7   2.0000      -0.317790        -8.6475 
   8   2.0000      -0.285547        -7.7701 
   9   2.0000      -0.270736        -7.3671 
  10   0.0000      -0.182421        -4.9639 
  11   0.0000      -0.167376        -4.5545 
  12   0.0000      -0.153944        -4.1890 
  13   0.0000      -0.139655        -3.8002 
  14   0.0000       0.024642         0.6706 
  15   0.0000       0.031661         0.8615 
  16   0.0000       0.034896         0.9496 
  17   0.0000       0.045583         1.2404 
  18   0.0000       0.076686         2.0867 
  19   0.0000       0.098257         2.6737 
  20   0.0000       0.100593         2.7373 
  21   0.0000       0.110290         3.0012 
  22   0.0000       0.129255         3.5172 
  23   0.0000       0.136777         3.7219 
  24   0.0000       0.144826         3.9409 
  25   0.0000       0.152828         4.1587 
  26   0.0000       0.173518         4.7217 
  27   0.0000       0.179089         4.8733 
  28   0.0000       0.197781         5.3819 
  29   0.0000       0.202564         5.5121 
  30   0.0000       0.207621         5.6497 
  31   0.0000       0.228290         6.2121 
  32   0.0000       0.230842         6.2815 
  33   0.0000       0.236293         6.4299 
  34   0.0000       0.244808         6.6616 
  35   0.0000       0.258396         7.0313 
  36   0.0000       0.270884         7.3711 
  37   0.0000       0.350197         9.5293 
  38   0.0000       0.431270        11.7354 
  39   0.0000       0.466786        12.7019 
  40   0.0000       0.475696        12.9443 
  41   0.0000       0.489657        13.3242 
  42   0.0000       0.562612        15.3094 
  43   0.0000       0.566511        15.4155 
  44   0.0000       0.579960        15.7815 
  45   0.0000       0.583853        15.8875 
  46   0.0000       0.596227        16.2242 
  47   0.0000       0.605236        16.4693 
  48   0.0000       0.619399        16.8547 
  49   0.0000       0.628479        17.1018 
  50   0.0000       0.629943        17.1416 
  51   0.0000       0.649723        17.6799 
  52   0.0000       0.684848        18.6357 
  53   0.0000       0.695982        18.9386 
  54   0.0000       0.720469        19.6050 
  55   0.0000       0.732142        19.9226 
  56   0.0000       0.740252        20.1433 
  57   0.0000       0.742187        20.1959 
  58   0.0000       0.746940        20.3253 
  59   0.0000       0.751475        20.4487 
  60   0.0000       0.753635        20.5074 
  61   0.0000       0.768455        20.9107 
  62   0.0000       0.790185        21.5020 
  63   0.0000       0.798755        21.7352 
  64   0.0000       0.800320        21.7778 
  65   0.0000       0.829987        22.5851 
  66   0.0000       0.838049        22.8045 
  67   0.0000       0.850533        23.1442 
  68   0.0000       0.863741        23.5036 
  69   0.0000       0.866524        23.5793 
  70   0.0000       0.873078        23.7576 
  71   0.0000       0.884337        24.0640 
  72   0.0000       0.891617        24.2621 
  73   0.0000       0.917069        24.9547 
  74   0.0000       0.942781        25.6544 
  75   0.0000       0.976125        26.5617 
  76   0.0000       0.978720        26.6323 
  77   0.0000       0.986457        26.8429 
  78   0.0000       0.994429        27.0598 
  79   0.0000       1.017082        27.6762 
  80   0.0000       1.026337        27.9281 
  81   0.0000       1.049585        28.5607 
  82   0.0000       1.087149        29.5828 
  83   0.0000       1.088131        29.6095 
  84   0.0000       1.108066        30.1520 
  85   0.0000       1.114138        30.3172 
  86   0.0000       1.213394        33.0181 
  87   0.0000       1.238353        33.6973 
  88   0.0000       1.463182        39.8152 
  89   0.0000       1.475801        40.1586 
  90   0.0000       1.719851        46.7995 
  91   0.0000       1.739522        47.3348 
  92   0.0000       1.900199        51.7070 
  93   0.0000       1.907114        51.8952 
  94   0.0000       1.907358        51.9018 
  95   0.0000       1.924927        52.3799 
  96   0.0000       1.926615        52.4259 
  97   0.0000       1.950626        53.0792 
  98   0.0000       1.968286        53.5598 
  99   0.0000       1.981902        53.9303 
 100   0.0000       1.999189        54.4007 
 101   0.0000       2.024376        55.0861 
 102   0.0000       2.027322        55.1662 
 103   0.0000       2.060509        56.0693 
 104   0.0000       2.073919        56.4342 
 105   0.0000       2.077750        56.5384 
 106   0.0000       2.088032        56.8182 
 107   0.0000       2.092052        56.9276 
 108   0.0000       2.137884        58.1748 
 109   0.0000       2.147809        58.4449 
 110   0.0000       2.200599        59.8814 
 111   0.0000       2.221789        60.4579 
 112   0.0000       2.260333        61.5068 
 113   0.0000       2.275757        61.9265 
 114   0.0000       2.295029        62.4509 
 115   0.0000       2.309771        62.8521 
 116   0.0000       2.787788        75.8596 
 117   0.0000       2.804742        76.3209 
 118   0.0000       2.808122        76.4129 
 119   0.0000       2.825123        76.8755 
 120   0.0000       3.590007        97.6891 
 121   0.0000       3.604055        98.0713 
 122   0.0000       3.612972        98.3140 
 123   0.0000       3.627179        98.7006 
 124   0.0000       3.639839        99.0451 
 125   0.0000       3.643474        99.1440 
 126   0.0000       3.654703        99.4495 
 127   0.0000       3.658840        99.5621 
 128   0.0000       3.681292       100.1730 
 129   0.0000       3.697884       100.6245 
 130   0.0000       3.720015       101.2268 
 131   0.0000       3.721403       101.2645 
 132   0.0000       3.751078       102.0720 
 133   0.0000       3.766315       102.4866 
 134   0.0000       3.775853       102.7462 
 135   0.0000       3.782979       102.9401 
 136   0.0000       3.804397       103.5229 
 137   0.0000       3.825093       104.0861 
 138   0.0000       3.868509       105.2675 
 139   0.0000       3.877784       105.5199 
 140   0.0000       3.880722       105.5998 
 141   0.0000       3.886150       105.7475 
 142   0.0000       3.906656       106.3055 
 143   0.0000       3.911042       106.4249 
 144   0.0000       3.938730       107.1783 
 145   0.0000       3.947798       107.4250 
 146   0.0000       4.004279       108.9620 
 147   0.0000       4.020136       109.3935 
 148   0.0000       4.061961       110.5316 
 149   0.0000       4.074288       110.8670 
 150   0.0000       4.088953       111.2661 
 151   0.0000       4.090033       111.2954 
 152   0.0000       4.097958       111.5111 
 153   0.0000       4.158918       113.1699 
 154   0.0000       4.394104       119.5697 
 155   0.0000       4.431309       120.5821 
 156   0.0000       4.486451       122.0825 
 157   0.0000       4.499342       122.4333 
 158   0.0000       6.134826       166.9371 
 159   0.0000       6.146829       167.2637 
 160   0.0000       6.172909       167.9734 
 161   0.0000       6.186058       168.3312 
 162   0.0000       6.246712       169.9817 
 163   0.0000       6.248399       170.0276 
 164   0.0000       6.260436       170.3551 
 165   0.0000       6.260528       170.3576 
 166   0.0000       6.280398       170.8983 
 167   0.0000       6.293868       171.2649 
 168   0.0000       6.396393       174.0547 
 169   0.0000       6.415870       174.5847 
 170   0.0000       6.449914       175.5111 
 171   0.0000       6.465711       175.9409 
 172   0.0000       6.579279       179.0313 
 173   0.0000       6.582214       179.1112 
 174   0.0000       6.583621       179.1494 
 175   0.0000       6.593077       179.4068 
 176   0.0000       6.595146       179.4630 
 177   0.0000       6.603566       179.6922 
 178   0.0000       6.666656       181.4089 
 179   0.0000       6.681272       181.8067 
 180   0.0000       6.841605       186.1695 
 181   0.0000       6.853488       186.4929 
 182   0.0000       9.809189       266.9216 
 183   0.0000       9.844441       267.8809 

                    ********************************
                    * MULLIKEN POPULATION ANALYSIS *
                    ********************************

-----------------------
MULLIKEN ATOMIC CHARGES
-----------------------
   0 O :   -0.482149
   1 H :    0.226633
   2 H :    0.251327
   3 O :   -0.472268
   4 H :    0.238228
   5 H :    0.238228
Sum of atomic charges:   -0.0000000

--------------------------------
MULLIKEN REDUCED ORBITAL CHARGES
--------------------------------
  0 O s       :     3.996384  s :     3.996384
      pz      :     1.981385  p :     4.470777
      px      :     1.235140
      py      :     1.254252
      dz2     :     0.003080  d :     0.014154
      dxz     :     0.000258
      dyz     :     0.000080
      dx2y2   :     0.008384
      dxy     :     0.002352
      f0      :     0.000094  f :     0.000834
      f+1     :     0.000269
      f-1     :     0.000342
      f+2     :     0.000001
      f-2     :     0.000002
      f+3     :     0.000006
      f-3     :     0.000121
  1 H s       :     0.753996  s :     0.753996
      pz      :     0.007841  p :     0.016743
      px      :     0.003006
      py      :     0.005895
      dz2     :     0.000230  d :     0.002628
      dxz     :     0.001235
      dyz     :     0.000196
      dx2y2   :     0.000166
      dxy     :     0.000801
  2 H s       :     0.730597  s :     0.730597
      pz      :     0.007486  p :     0.015832
      px      :     0.004299
      py      :     0.004047
      dz2     :     0.000132  d :     0.002243
      dxz     :     0.000026
      dyz     :     0.001421
      dx2y2   :     0.000152
      dxy     :     0.000513
  3 O s       :     3.991275  s :     3.991275
      pz      :     1.238417  p :     4.466609
      px      :     1.515743
      py      :     1.712449
      dz2     :     0.000134  d :     0.013568
      dxz     :     0.006956
      dyz     :     0.003748
      dx2y2   :     0.000472
      dxy     :     0.002258
      f0      :     0.000043  f :     0.000817
      f+1     :     0.000176
      f-1     :     0.000112
      f+2     :     0.000020
      f-2     :     0.000310
      f+3     :     0.000055
      f-3     :     0.000100
  4 H s       :     0.741638  s :     0.741638
      pz      :     0.005771  p :     0.017366
      px      :     0.004701
      py      :     0.006894
      dz2     :     0.000984  d :     0.002768
      dxz     :     0.000377
      dyz     :     0.000772
      dx2y2   :     0.000516
      dxy     :     0.000118
  5 H s       :     0.741638  s :     0.741638
      pz      :     0.005771  p :     0.017366
      px      :     0.004701
      py      :     0.006894
      dz2     :     0.000984  d :     0.002768
      dxz     :     0.000377
      dyz     :     0.000772
      dx2y2   :     0.000516
      dxy     :     0.000118


                     *******************************
                     * LOEWDIN POPULATION ANALYSIS *
                     *******************************

----------------------
LOEWDIN ATOMIC CHARGES
----------------------
   0 O :   -0.159568
   1 H :    0.068856
   2 H :    0.088655
   3 O :   -0.158473
   4 H :    0.080265
   5 H :    0.080265

-------------------------------
LOEWDIN REDUCED ORBITAL CHARGES
-------------------------------
  0 O s       :     3.715528  s :     3.715528
      pz      :     1.891287  p :     4.385702
      px      :     1.244642
      py      :     1.249774
      dz2     :     0.012289  d :     0.052399
      dxz     :     0.000290
      dyz     :     0.000092
      dx2y2   :     0.027747
      dxy     :     0.011981
      f0      :     0.000082  f :     0.005938
      f+1     :     0.000882
      f-1     :     0.001074
      f+2     :     0.000002
      f-2     :     0.000009
      f+3     :     0.000833
      f-3     :     0.003056
  1 H s       :     0.690848  s :     0.690848
      pz      :     0.026069  p :     0.126896
      px      :     0.073568
      py      :     0.027259
      dz2     :     0.015694  d :     0.113401
      dxz     :     0.025028
      dyz     :     0.004098
      dx2y2   :     0.039382
      dxy     :     0.029198
  2 H s       :     0.673863  s :     0.673863
      pz      :     0.024997  p :     0.127828
      px      :     0.020287
      py      :     0.082544
      dz2     :     0.015275  d :     0.109654
      dxz     :     0.000499
      dyz     :     0.027547
      dx2y2   :     0.042643
      dxy     :     0.023690
  3 O s       :     3.712409  s :     3.712409
      pz      :     1.241476  p :     4.387541
      px      :     1.487723
      py      :     1.658341
      dz2     :     0.012327  d :     0.052551
      dxz     :     0.022688
      dyz     :     0.012983
      dx2y2   :     0.000720
      dxy     :     0.003833
      f0      :     0.000008  f :     0.005971
      f+1     :     0.002325
      f-1     :     0.001391
      f+2     :     0.000135
      f-2     :     0.001920
      f+3     :     0.000052
      f-3     :     0.000141
  4 H s       :     0.681429  s :     0.681429
      pz      :     0.056432  p :     0.125794
      px      :     0.037146
      py      :     0.032216
      dz2     :     0.023374  d :     0.112512
      dxz     :     0.037207
      dyz     :     0.029202
      dx2y2   :     0.010873
      dxy     :     0.011857
  5 H s       :     0.681429  s :     0.681429
      pz      :     0.056432  p :     0.125794
      px      :     0.037146
      py      :     0.032216
      dz2     :     0.023374  d :     0.112512
      dxz     :     0.037207
      dyz     :     0.029202
      dx2y2   :     0.010873
      dxy     :     0.011857


                      *****************************
                      * MAYER POPULATION ANALYSIS *
                      *****************************

  NA   - Mulliken gross atomic population
  ZA   - Total nuclear charge
  QA   - Mulliken gross atomic charge
  VA   - Mayer's total valence
  BVA  - Mayer's bonded valence
  FA   - Mayer's free valence

  ATOM       NA         ZA         QA         VA         BVA        FA
  0 O      8.4821     8.0000    -0.4821     1.8958     1.8958    -0.0000
  1 H      0.7734     1.0000     0.2266     0.9673     0.9673    -0.0000
  2 H      0.7487     1.0000     0.2513     0.9553     0.9553    -0.0000
  3 O      8.4723     8.0000    -0.4723     1.9077     1.9077    -0.0000
  4 H      0.7618     1.0000     0.2382     0.9632     0.9632    -0.0000
  5 H      0.7618     1.0000     0.2382     0.9632     0.9632     0.0000

  Mayer bond orders larger than 0.100000
B(  0-O ,  1-H ) :   0.9562 B(  0-O ,  2-H ) :   0.9396 B(  3-O ,  4-H ) :   0.9522 
B(  3-O ,  5-H ) :   0.9522 

-------
TIMINGS
-------

Total SCF time: 0 days 0 hours 0 min 3 sec 

Total time                  ....       3.561 sec
Sum of individual times     ....       3.327 sec  ( 93.4%)

Fock matrix formation       ....       3.003 sec  ( 84.3%)
  XC integration            ....       0.403 sec  ( 13.4% of F)
    Basis function eval.    ....       0.049 sec  ( 12.0% of XC)
    Density eval.           ....       0.063 sec  ( 15.6% of XC)
    XC-Functional eval.     ....       0.033 sec  (  8.2% of XC)
    XC-Potential eval.      ....       0.129 sec  ( 31.9% of XC)
Diagonalization             ....       0.043 sec  (  1.2%)
Density matrix formation    ....       0.010 sec  (  0.3%)
Population analysis         ....       0.005 sec  (  0.1%)
Initial guess               ....       0.093 sec  (  2.6%)
Orbital Transformation      ....       0.000 sec  (  0.0%)
Orbital Orthonormalization  ....       0.000 sec  (  0.0%)
DIIS solution               ....       0.018 sec  (  0.5%)
SOSCF solution              ....       0.014 sec  (  0.4%)
Grid generation             ....       0.139 sec  (  3.9%)


-------------------------------------------------------------------------------
                          DFT DISPERSION CORRECTION                            
                                                                               
                              DFTD3 V3.1  Rev 1                                
                          USING Becke-Johnson damping                          
-------------------------------------------------------------------------------
The TPSSH functional is recognized
Active option DFTDOPT                   ...         4   

molecular C6(AA) [au] = 341.285125 


            DFT-D V3
 parameters
 s6 scaling factor         :     1.0000 
 a1 scaling factor         :     0.4529 
 s8 scaling factor         :     2.2382 
 a2 scaling factor         :     4.6550 
 ad hoc parameters k1-k3   :    16.0000     1.3333    -4.0000 

 Edisp/kcal,au: -0.936395707630  -0.001492241387 
 E6   /kcal   :  -0.521244509 
 E8   /kcal   :  -0.415151199 
 % E8         :  44.335017262 

-------------------------   ----------------
Dispersion correction           -0.001492241
-------------------------   ----------------


-------------------------   --------------------
FINAL SINGLE POINT ENERGY      -152.306050977486
-------------------------   --------------------



           ************************************************************
           *        Program running with 24 parallel MPI-processes    *
           *              working on a common directory               *
           ************************************************************
------------------------------------------------------------------------------
                         ORCA SCF GRADIENT CALCULATION
------------------------------------------------------------------------------

Gradient of the Kohn-Sham DFT energy:
Kohn-Sham wavefunction type      ... RKS
Hartree-Fock exchange scaling    ...    0.100
Number of operators              ...    1
Number of atoms                  ...    6
Basis set dimensions             ...  184
Integral neglect threshold       ... 2.5e-11
Integral primitive cutoff        ... 2.5e-12

Nuclear repulsion gradient       ... done
One Electron Gradient            ... done
Pre-screening matrix             ... done
Starting the two electron gradient:
Two electron gradient done
Exchange-correlation gradient    ... done
Dispersion correction            ... done

------------------
CARTESIAN GRADIENT
------------------

   1   O   :    0.082030081    0.046509999    0.000000002
   2   H   :   -0.076324735    0.036805844    0.000000001
   3   H   :   -0.005830161   -0.082377871   -0.000000001
   4   O   :   -0.074712527    0.056944294   -0.000000007
   5   H   :    0.037481131   -0.028918914   -0.070017893
   6   H   :    0.037481124   -0.028918907    0.070017881

Difference to translation invariance:
           :    0.0001249130    0.0000444439   -0.0000000156

Norm of the cartesian gradient     ...    0.2144860220
RMS gradient                       ...    0.0505548402
MAX gradient                       ...    0.0823778708

-------
TIMINGS
-------

Total SCF gradient time            ...        0.795 sec

One electron gradient       ....       0.008 sec  (  1.0%)
Prescreening matrices       ....       0.020 sec  (  2.5%)
Two electron gradient       ....       0.505 sec  ( 63.6%)
XC gradient                 ....       0.059 sec  (  7.4%)
------------------------------------------------------------------------------
                         ORCA GEOMETRY RELAXATION STEP
------------------------------------------------------------------------------

Reading the OPT-File                    .... done
Getting information on internals        .... done
Copying old internal coords+grads       .... done
Making the new internal coordinates     .... (new redundants).... done
Validating the new internal coordinates .... (new redundants).... done
Calculating the B-matrix                .... done
Calculating the G,G- and P matrices     .... done
Transforming gradient to internals      .... done
Projecting the internal gradient        .... done
Number of atoms                         ....   6
Number of internal coordinates          ....  13
Current Energy                          ....  -152.306050977 Eh
Current gradient norm                   ....     0.214486022 Eh/bohr
Maximum allowed component of the step   ....  0.300
Current trust radius                    ....  0.300
Evaluating the initial hessian          ....  (Almloef) done
Projecting the Hessian                  .... done
Forming the augmented Hessian           .... done
Diagonalizing the augmented Hessian     .... done
Last element of RFO vector              ....  0.730850623
Lowest eigenvalues of augmented Hessian:
 -0.158448039  0.000023543  0.001500001  0.001721984  0.021989686
Length of the computed step             ....  0.933894595
Warning: the length of the step is outside the trust region - taking restricted step instead
The input lambda is                     ....    -0.158448
   iter:   1  x=   -0.239785  g=    9.616333 f(x)=     0.782159
   iter:   2  x=   -0.342802  g=    3.163271 f(x)=     0.325871
   iter:   3  x=   -0.449147  g=    1.172902 f(x)=     0.124732
   iter:   4  x=   -0.520546  g=    0.545696 f(x)=     0.038962
   iter:   5  x=   -0.541053  g=    0.357767 f(x)=     0.007337
   iter:   6  x=   -0.542286  g=    0.320175 f(x)=     0.000395
   iter:   7  x=   -0.542290  g=    0.318085 f(x)=     0.000001
   iter:   8  x=   -0.542290  g=    0.318078 f(x)=     0.000000
   iter:   9  x=   -0.542290  g=    0.318078 f(x)=     0.000000
The output lambda is                    ....    -0.542290 (9 iterations)
The final length of the internal step   ....  0.300000000
Converting the step to cartesian space:
 Initial RMS(Int)=    0.0832050294
Transforming coordinates:
 Iter   0:  RMS(Cart)=    0.0876053078 RMS(Int)=    0.0830339787
 Iter   1:  RMS(Cart)=    0.0007906409 RMS(Int)=    0.0006041999
 Iter   2:  RMS(Cart)=    0.0000278949 RMS(Int)=    0.0000330396
 Iter   3:  RMS(Cart)=    0.0000008559 RMS(Int)=    0.0000010183
 Iter   4:  RMS(Cart)=    0.0000000348 RMS(Int)=    0.0000000315
done
Storing new coordinates                 .... done

                                .--------------------.
          ----------------------|Geometry convergence|-------------------------
          Item                value                   Tolerance       Converged
          ---------------------------------------------------------------------
          RMS gradient        0.0471151620            0.0001000000      NO
          MAX gradient        0.0845631707            0.0003000000      NO
          RMS step            0.0832050294            0.0020000000      NO
          MAX step            0.1496289424            0.0040000000      NO
          ........................................................
          Max(Bonds)      0.0792      Max(Angles)    1.50
          Max(Dihed)        0.51      Max(Improp)    0.00
          ---------------------------------------------------------------------

The optimization has not yet converged - more geometry cycles are needed


    ---------------------------------------------------------------------------
                         Redundant Internal Coordinates
                            (Angstroem and degrees)

        Definition                    Value    dE/dq     Step     New-Value
    ----------------------------------------------------------------------------
     1. B(H   1,O   0)                1.8105  0.084563 -0.0792    1.7313   
     2. B(H   2,O   0)                1.8238  0.083346 -0.0782    1.7456   
     3. B(O   3,H   2)                3.6908  0.000928 -0.0009    3.6899   
     4. B(H   4,O   3)                1.8134  0.084341 -0.0790    1.7344   
     5. B(H   5,O   3)                1.8134  0.084341 -0.0790    1.7344   
     6. A(H   1,O   0,H   2)          104.67  0.018029   -1.50    103.17   
     7. A(O   0,H   2,O   3)          172.57 -0.000049    0.00    172.57   
     8. A(H   2,O   3,H   4)          111.75 -0.002806    0.21    111.97   
     9. A(H   4,O   3,H   5)          104.78  0.011533   -1.03    103.76   
    10. A(H   2,O   3,H   5)          111.75 -0.002806    0.21    111.97   
    11. D(O   3,H   2,O   0,H   1)    180.00  0.000000   -0.00    180.00   
    12. D(H   5,O   3,H   2,O   0)     58.53  0.005429   -0.51     58.03   
    13. D(H   4,O   3,H   2,O   0)    -58.53 -0.005429    0.51    -58.03   
    ----------------------------------------------------------------------------

         *************************************************************
         *                GEOMETRY OPTIMIZATION CYCLE   2            *
         *************************************************************
---------------------------------
CARTESIAN COORDINATES (ANGSTROEM)
---------------------------------
  O      0.115825    2.770941   -0.000000
  H     -1.504557    3.380592   -0.000000
  H     -0.110434    1.040017    0.000000
  O     -0.111862   -2.649882    0.000000
  H      0.739608   -3.299036   -1.364455
  H      0.739608   -3.299036    1.364455

----------------------------
CARTESIAN COORDINATES (A.U.)
----------------------------
  NO LB      ZA    FRAG     MASS         X           Y           Z
   0 O     8.0000    0    15.999    0.218878    5.236320   -0.000000
   1 H     1.0000    0     1.008   -2.843201    6.388393   -0.000000
   2 H     1.0000    0     1.008   -0.208691    1.965348    0.000000
   3 O     8.0000    0    15.999   -0.211388   -5.007552    0.000000
   4 H     1.0000    0     1.008    1.397656   -6.234275   -2.578446
   5 H     1.0000    0     1.008    1.397656   -6.234275    2.578446

--------------------------------
INTERNAL COORDINATES (ANGSTROEM)
--------------------------------
 O      0   0   0     0.000000000000     0.00000000     0.00000000
 H      1   0   0     1.731274937273     0.00000000     0.00000000
 H      1   2   0     1.745649336486   103.17099117     0.00000000
 O      3   1   2     3.689899748246   172.57490491   180.00000000
 H      4   3   1     1.734398291476   111.96820019   301.97324418
 H      4   3   1     1.734398296815   111.96820276    58.02675544

---------------------------
INTERNAL COORDINATES (A.U.)
---------------------------
 O      0   0   0     0.000000000000     0.00000000     0.00000000
 H      1   0   0     3.271635493967     0.00000000     0.00000000
 H      1   2   0     3.298799171819   103.17099117     0.00000000
 O      3   1   2     6.972899985809   172.57490491   180.00000000
 H      4   3   1     3.277537778031   111.96820019   301.97324418
 H      4   3   1     3.277537788119   111.96820276    58.02675544



           ************************************************************
           *        Program running with 24 parallel MPI-processes    *
           *              working on a common directory               *
           ************************************************************


           ************************************************************
           *        Program running with 24 parallel MPI-processes    *
           *              working on a common directory               *
           ************************************************************

Diagonalization of the overlap matrix:
Smallest eigenvalue                        ... 1.736e-03
Time for diagonalization                   ...    0.007 sec
Threshold for overlap eigenvalues          ... 1.000e-08
Number of eigenvalues below threshold      ... 0
Time for construction of square roots      ...    0.004 sec
Total time needed                          ...    0.010 sec

-------------------
DFT GRID GENERATION
-------------------

General Integration Accuracy     IntAcc      ...  4.670
Radial Grid Type                 RadialGrid  ... Gauss-Chebyshev
Angular Grid (max. acc.)         AngularGrid ... Lebedev-302
Angular grid pruning method      GridPruning ... 3 (G Style)
Weight generation scheme         WeightScheme... Becke
Basis function cutoff            BFCut       ...    1.0000e-11
Integration weight cutoff        WCut        ...    1.0000e-14
Grids for H and He will be reduced by one unit

# of grid points (after initial pruning)     ...  26000 (   0.0 sec)
# of grid points (after weights+screening)   ...  25728 (   0.0 sec)
nearest neighbour list constructed           ...    0.0 sec
Grid point re-assignment to atoms done       ...    0.0 sec
Grid point division into batches done        ...    0.1 sec
Reduced shell lists constructed in    0.1 sec

Total number of grid points                  ...    25728
Total number of batches                      ...      405
Average number of points per batch           ...       63
Average number of grid points per atom       ...     4288
Average number of shells per batch           ...    26.11 (40.80%)
Average number of basis functions per batch  ...    66.78 (36.29%)
Average number of large shells per batch     ...    19.11 (73.19%)
Average number of large basis fcns per batch ...    46.33 (69.38%)
Maximum spatial batch extension              ...  13.13, 14.34, 16.88 au
Average spatial batch extension              ...   0.31,  0.35,  0.36 au

Time for grid setup =    0.144 sec

--------------
SCF ITERATIONS
--------------
ITER       Energy         Delta-E        Max-DP      RMS-DP      [F,P]     Damp
               ***  Starting incremental Fock matrix formation  ***
  0   -152.3566298595   0.000000000000 0.00258940  0.00005948  0.0134193 0.7000
                      *** Initiating the SOSCF procedure ***
                      *** Re-Reading the Fockian *** 
                      *** Removing any level shift *** 
ITER      Energy       Delta-E        Grad      Rot      Max-DP    RMS-DP
  1   -152.35695950  -0.0003296387  0.001871  0.001871  0.004945  0.000136
               *** Restarting incremental Fock matrix formation ***
  2   -152.35710229  -0.0001427893  0.006746  0.034171  0.017502  0.000440
  3   -152.34833683   0.0087654593  0.034055  0.030264  0.014767  0.000368
  4   -152.35747314  -0.0091363129  0.000202  0.000426  0.000450  0.000008
  5   -152.35747319  -0.0000000489  0.000297  0.000635  0.000356  0.000008
  6   -152.35747195   0.0000012424  0.000476  0.000447  0.000287  0.000007
  7   -152.35747394  -0.0000019942  0.000085  0.000313  0.000229  0.000003
  8   -152.35747404  -0.0000001013  0.000073  0.000192  0.000105  0.000002
  9   -152.35747409  -0.0000000518  0.000022  0.000036  0.000033  0.000001
 10   -152.35747410  -0.0000000069  0.000010  0.000009  0.000006  0.000000
                 **** Energy Check signals convergence ****
              ***Rediagonalizing the Fockian in SOSCF/NRSCF***

               *****************************************************
               *                     SUCCESS                       *
               *           SCF CONVERGED AFTER  11 CYCLES          *
               *****************************************************

Total Energy       :         -152.35747410 Eh           -4145.85764 eV
  Last Energy change         ...   -1.3688e-09  Tolerance :   1.0000e-08
  Last MAX-Density change    ...    8.0727e-07  Tolerance :   1.0000e-07
             **** THE GBW FILE WAS UPDATED (02_H2O_2.gbw) ****
             **** DENSITY FILE WAS UPDATED (02_H2O_2.scfp) ****
             **** ENERGY FILE WAS UPDATED (02_H2O_2.en.tmp) ****
             **** THE GBW FILE WAS UPDATED (02_H2O_2.gbw) ****
             **** DENSITY FILE WAS UPDATED (02_H2O_2.scfp) ****
Total SCF time: 0 days 0 hours 0 min 2 sec 


-------------------------------------------------------------------------------
                          DFT DISPERSION CORRECTION                            
                                                                               
                              DFTD3 V3.1  Rev 1                                
                          USING Becke-Johnson damping                          
-------------------------------------------------------------------------------
-------------------------   ----------------
Dispersion correction           -0.001529554
-------------------------   ----------------


-------------------------   --------------------
FINAL SINGLE POINT ENERGY      -152.359003657178
-------------------------   --------------------



           ************************************************************
           *        Program running with 24 parallel MPI-processes    *
           *              working on a common directory               *
           ************************************************************
------------------------------------------------------------------------------
                         ORCA SCF GRADIENT CALCULATION
------------------------------------------------------------------------------

Gradient of the Kohn-Sham DFT energy:
Kohn-Sham wavefunction type      ... RKS
Hartree-Fock exchange scaling    ...    0.100
Number of operators              ...    1
Number of atoms                  ...    6
Basis set dimensions             ...  184
Integral neglect threshold       ... 2.5e-11
Integral primitive cutoff        ... 2.5e-12

Nuclear repulsion gradient       ... done
One Electron Gradient            ... done
Pre-screening matrix             ... done
Starting the two electron gradient:
Two electron gradient done
Exchange-correlation gradient    ... done
Dispersion correction            ... done

------------------
CARTESIAN GRADIENT
------------------

   1   O   :    0.089814216    0.052644565   -0.000000004
   2   H   :   -0.083519935    0.037228965    0.000000002
   3   H   :   -0.006426573   -0.088958186    0.000000003
   4   O   :   -0.081968246    0.062116123    0.000000005
   5   H   :    0.041106364   -0.031516286   -0.075032370
   6   H   :    0.041106366   -0.031516289    0.075032368

Difference to translation invariance:
           :    0.0001121920   -0.0000011082    0.0000000027

Norm of the cartesian gradient     ...    0.2331467708
RMS gradient                       ...    0.0549532209
MAX gradient                       ...    0.0898142159

-------
TIMINGS
-------

Total SCF gradient time            ...        0.816 sec

One electron gradient       ....       0.021 sec  (  2.5%)
Prescreening matrices       ....       0.018 sec  (  2.2%)
Two electron gradient       ....       0.516 sec  ( 63.2%)
XC gradient                 ....       0.063 sec  (  7.7%)
------------------------------------------------------------------------------
                         ORCA GEOMETRY RELAXATION STEP
------------------------------------------------------------------------------

Reading the OPT-File                    .... done
Getting information on internals        .... done
Copying old internal coords+grads       .... done
Making the new internal coordinates     .... (new redundants).... done
Validating the new internal coordinates .... (new redundants).... done
Calculating the B-matrix                .... done
Calculating the G,G- and P matrices     .... done
Transforming gradient to internals      .... done
Projecting the internal gradient        .... done
Number of atoms                         ....   6
Number of internal coordinates          ....  13
Current Energy                          ....  -152.359003657 Eh
Current gradient norm                   ....     0.233146771 Eh/bohr
Maximum allowed component of the step   ....  0.300
Current trust radius                    ....  0.300
Updating the Hessian (BFGS)             .... done
Forming the augmented Hessian           .... done
Diagonalizing the augmented Hessian     .... done
Last element of RFO vector              ....  0.663439817
Lowest eigenvalues of augmented Hessian:
 -0.206410953  0.000021755  0.001500001  0.001721984  0.021983227
Length of the computed step             ....  1.127803352
Warning: the length of the step is outside the trust region - taking restricted step instead
The input lambda is                     ....    -0.206411
   iter:   1  x=   -0.281793  g=   15.679397 f(x)=     1.181940
   iter:   2  x=   -0.382583  g=    4.990302 f(x)=     0.502973
   iter:   3  x=   -0.499726  g=    1.727716 f(x)=     0.202389
   iter:   4  x=   -0.600483  g=    0.708316 f(x)=     0.071368
   iter:   5  x=   -0.647315  g=    0.388978 f(x)=     0.018217
   iter:   6  x=   -0.654086  g=    0.305232 f(x)=     0.002067
   iter:   7  x=   -0.654202  g=    0.295181 f(x)=     0.000034
   iter:   8  x=   -0.654202  g=    0.295013 f(x)=     0.000000
   iter:   9  x=   -0.654202  g=    0.295013 f(x)=     0.000000
The output lambda is                    ....    -0.654202 (9 iterations)
The final length of the internal step   ....  0.300000000
Converting the step to cartesian space:
 Initial RMS(Int)=    0.0832050294
Transforming coordinates:
 Iter   0:  RMS(Cart)=    0.0869170693 RMS(Int)=    0.0830314163
 Iter   1:  RMS(Cart)=    0.0008339103 RMS(Int)=    0.0006402347
 Iter   2:  RMS(Cart)=    0.0000310992 RMS(Int)=    0.0000366266
 Iter   3:  RMS(Cart)=    0.0000009893 RMS(Int)=    0.0000011899
 Iter   4:  RMS(Cart)=    0.0000000416 RMS(Int)=    0.0000000386
done
Storing new coordinates                 .... done

                                .--------------------.
          ----------------------|Geometry convergence|-------------------------
          Item                value                   Tolerance       Converged
          ---------------------------------------------------------------------
          Energy change      -0.0529526797            0.0000050000      NO
          RMS gradient        0.0507723937            0.0001000000      NO
          MAX gradient        0.0912701379            0.0003000000      NO
          RMS step            0.0832050294            0.0020000000      NO
          MAX step            0.1497663624            0.0040000000      NO
          ........................................................
          Max(Bonds)      0.0793      Max(Angles)    1.54
          Max(Dihed)        0.49      Max(Improp)    0.00
          ---------------------------------------------------------------------

The optimization has not yet converged - more geometry cycles are needed


    ---------------------------------------------------------------------------
                         Redundant Internal Coordinates
                            (Angstroem and degrees)

        Definition                    Value    dE/dq     Step     New-Value
    ----------------------------------------------------------------------------
     1. B(H   1,O   0)                1.7313  0.091270 -0.0793    1.6520   
     2. B(H   2,O   0)                1.7456  0.089947 -0.0781    1.6675   
     3. B(O   3,H   2)                3.6899  0.000929 -0.0008    3.6891   
     4. B(H   4,O   3)                1.7344  0.090984 -0.0790    1.6554   
     5. B(H   5,O   3)                1.7344  0.090984 -0.0790    1.6554   
     6. A(H   1,O   0,H   2)          103.17  0.017838   -1.54    101.63   
     7. A(O   0,H   2,O   3)          172.57 -0.000079    0.01    172.58   
     8. A(H   2,O   3,H   4)          111.97 -0.002898    0.26    112.22   
     9. A(H   4,O   3,H   5)          103.76  0.011752   -1.04    102.71   
    10. A(H   2,O   3,H   5)          111.97 -0.002898    0.26    112.22   
    11. D(O   3,H   2,O   0,H   1)    180.00  0.000000   -0.00    180.00   
    12. D(H   5,O   3,H   2,O   0)     58.03  0.005514   -0.49     57.54   
    13. D(H   4,O   3,H   2,O   0)    -58.03 -0.005514    0.49    -57.54   
    ----------------------------------------------------------------------------

         *************************************************************
         *                GEOMETRY OPTIMIZATION CYCLE   3            *
         *************************************************************
---------------------------------
CARTESIAN COORDINATES (ANGSTROEM)
---------------------------------
  O      0.104069    2.723231    0.000000
  H     -1.458107    3.260618   -0.000000
  H     -0.109273    1.069388    0.000000
  O     -0.105033   -2.619757   -0.000000
  H      0.718265   -3.244942   -1.292963
  H      0.718265   -3.244942    1.292963

----------------------------
CARTESIAN COORDINATES (A.U.)
----------------------------
  NO LB      ZA    FRAG     MASS         X           Y           Z
   0 O     8.0000    0    15.999    0.196661    5.146161    0.000000
   1 H     1.0000    0     1.008   -2.755422    6.161675   -0.000000
   2 H     1.0000    0     1.008   -0.206495    2.020850    0.000000
   3 O     8.0000    0    15.999   -0.198484   -4.950623   -0.000000
   4 H     1.0000    0     1.008    1.357325   -6.132051   -2.443345
   5 H     1.0000    0     1.008    1.357325   -6.132051    2.443345

--------------------------------
INTERNAL COORDINATES (ANGSTROEM)
--------------------------------
 O      0   0   0     0.000000000000     0.00000000     0.00000000
 H      1   0   0     1.652021991728     0.00000000     0.00000000
 H      1   2   0     1.667546627472   101.63275982     0.00000000
 O      3   1   2     3.689147377371   172.58374269   179.99999915
 H      4   3   1     1.655424170920   112.22407066   302.46441546
 H      4   3   1     1.655424176087   112.22407042    57.53558372

---------------------------
INTERNAL COORDINATES (A.U.)
---------------------------
 O      0   0   0     0.000000000000     0.00000000     0.00000000
 H      1   0   0     3.121869131581     0.00000000     0.00000000
 H      1   2   0     3.151206441467   101.63275982     0.00000000
 O      3   1   2     6.971478210906   172.58374269   179.99999915
 H      4   3   1     3.128298318512   112.22407066   302.46441546
 H      4   3   1     3.128298328276   112.22407042    57.53558372



           ************************************************************
           *        Program running with 24 parallel MPI-processes    *
           *              working on a common directory               *
           ************************************************************


           ************************************************************
           *        Program running with 24 parallel MPI-processes    *
           *              working on a common directory               *
           ************************************************************

Diagonalization of the overlap matrix:
Smallest eigenvalue                        ... 1.454e-03
Time for diagonalization                   ...    0.007 sec
Threshold for overlap eigenvalues          ... 1.000e-08
Number of eigenvalues below threshold      ... 0
Time for construction of square roots      ...    0.004 sec
Total time needed                          ...    0.011 sec

-------------------
DFT GRID GENERATION
-------------------

General Integration Accuracy     IntAcc      ...  4.670
Radial Grid Type                 RadialGrid  ... Gauss-Chebyshev
Angular Grid (max. acc.)         AngularGrid ... Lebedev-302
Angular grid pruning method      GridPruning ... 3 (G Style)
Weight generation scheme         WeightScheme... Becke
Basis function cutoff            BFCut       ...    1.0000e-11
Integration weight cutoff        WCut        ...    1.0000e-14
Grids for H and He will be reduced by one unit

# of grid points (after initial pruning)     ...  26000 (   0.0 sec)
# of grid points (after weights+screening)   ...  25717 (   0.0 sec)
nearest neighbour list constructed           ...    0.0 sec
Grid point re-assignment to atoms done       ...    0.0 sec
Grid point division into batches done        ...    0.1 sec
Reduced shell lists constructed in    0.1 sec

Total number of grid points                  ...    25717
Total number of batches                      ...      405
Average number of points per batch           ...       63
Average number of grid points per atom       ...     4286
Average number of shells per batch           ...    26.28 (41.06%)
Average number of basis functions per batch  ...    66.72 (36.26%)
Average number of large shells per batch     ...    19.22 (73.15%)
Average number of large basis fcns per batch ...    46.56 (69.78%)
Maximum spatial batch extension              ...  13.02, 14.34, 16.88 au
Average spatial batch extension              ...   0.31,  0.36,  0.36 au

Time for grid setup =    0.132 sec

--------------
SCF ITERATIONS
--------------
ITER       Energy         Delta-E        Max-DP      RMS-DP      [F,P]     Damp
               ***  Starting incremental Fock matrix formation  ***
  0   -152.4133121260   0.000000000000 0.00257271  0.00006177  0.0140625 0.7000
                      *** Initiating the SOSCF procedure ***
                      *** Re-Reading the Fockian *** 
                      *** Removing any level shift *** 
ITER      Energy       Delta-E        Grad      Rot      Max-DP    RMS-DP
  1   -152.41368952  -0.0003773963  0.001669  0.001669  0.005165  0.000149
               *** Restarting incremental Fock matrix formation ***
  2   -152.41397987  -0.0002903514  0.006512  0.028332  0.015198  0.000390
  3   -152.40752171   0.0064581615  0.029179  0.025125  0.012662  0.000319
  4   -152.41433537  -0.0068136601  0.000220  0.000435  0.000365  0.000007
  5   -152.41433549  -0.0000001217  0.000290  0.000578  0.000312  0.000008
  6   -152.41433464   0.0000008546  0.000428  0.000402  0.000251  0.000006
  7   -152.41433626  -0.0000016218  0.000096  0.000123  0.000124  0.000002
  8   -152.41433638  -0.0000001142  0.000030  0.000089  0.000061  0.000001
  9   -152.41433639  -0.0000000149  0.000015  0.000039  0.000029  0.000000
 10   -152.41433639  -0.0000000020  0.000007  0.000008  0.000008  0.000000
                 **** Energy Check signals convergence ****
              ***Rediagonalizing the Fockian in SOSCF/NRSCF***

               *****************************************************
               *                     SUCCESS                       *
               *           SCF CONVERGED AFTER  11 CYCLES          *
               *****************************************************

Total Energy       :         -152.41433639 Eh           -4147.40494 eV
  Last Energy change         ...   -8.8338e-10  Tolerance :   1.0000e-08
  Last MAX-Density change    ...    5.3148e-07  Tolerance :   1.0000e-07
             **** THE GBW FILE WAS UPDATED (02_H2O_2.gbw) ****
             **** DENSITY FILE WAS UPDATED (02_H2O_2.scfp) ****
             **** ENERGY FILE WAS UPDATED (02_H2O_2.en.tmp) ****
             **** THE GBW FILE WAS UPDATED (02_H2O_2.gbw) ****
             **** DENSITY FILE WAS UPDATED (02_H2O_2.scfp) ****
Total SCF time: 0 days 0 hours 0 min 2 sec 


-------------------------------------------------------------------------------
                          DFT DISPERSION CORRECTION                            
                                                                               
                              DFTD3 V3.1  Rev 1                                
                          USING Becke-Johnson damping                          
-------------------------------------------------------------------------------
-------------------------   ----------------
Dispersion correction           -0.001561055
-------------------------   ----------------


-------------------------   --------------------
FINAL SINGLE POINT ENERGY      -152.415897448293
-------------------------   --------------------



           ************************************************************
           *        Program running with 24 parallel MPI-processes    *
           *              working on a common directory               *
           ************************************************************
------------------------------------------------------------------------------
                         ORCA SCF GRADIENT CALCULATION
------------------------------------------------------------------------------

Gradient of the Kohn-Sham DFT energy:
Kohn-Sham wavefunction type      ... RKS
Hartree-Fock exchange scaling    ...    0.100
Number of operators              ...    1
Number of atoms                  ...    6
Basis set dimensions             ...  184
Integral neglect threshold       ... 2.5e-11
Integral primitive cutoff        ... 2.5e-12

Nuclear repulsion gradient       ... done
One Electron Gradient            ... done
Pre-screening matrix             ... done
Starting the two electron gradient:
Two electron gradient done
Exchange-correlation gradient    ... done
Dispersion correction            ... done

------------------
CARTESIAN GRADIENT
------------------

   1   O   :    0.097744622    0.059379993   -0.000000002
   2   H   :   -0.090812889    0.037004948   -0.000000003
   3   H   :   -0.007105365   -0.095481902    0.000000001
   4   O   :   -0.089455568    0.067461322    0.000000002
   5   H   :    0.044833730   -0.034217268   -0.079863045
   6   H   :    0.044833730   -0.034217270    0.079863042

Difference to translation invariance:
           :    0.0000382592   -0.0000701770   -0.0000000052

Norm of the cartesian gradient     ...    0.2520613639
RMS gradient                       ...    0.0594114332
MAX gradient                       ...    0.0977446215

-------
TIMINGS
-------

Total SCF gradient time            ...        0.826 sec

One electron gradient       ....       0.016 sec  (  1.9%)
Prescreening matrices       ....       0.019 sec  (  2.3%)
Two electron gradient       ....       0.527 sec  ( 63.9%)
XC gradient                 ....       0.064 sec  (  7.8%)
------------------------------------------------------------------------------
                         ORCA GEOMETRY RELAXATION STEP
------------------------------------------------------------------------------

Reading the OPT-File                    .... done
Getting information on internals        .... done
Copying old internal coords+grads       .... done
Making the new internal coordinates     .... (new redundants).... done
Validating the new internal coordinates .... (new redundants).... done
Calculating the B-matrix                .... done
Calculating the G,G- and P matrices     .... done
Transforming gradient to internals      .... done
Projecting the internal gradient        .... done
Number of atoms                         ....   6
Number of internal coordinates          ....  13
Current Energy                          ....  -152.415897448 Eh
Current gradient norm                   ....     0.252061364 Eh/bohr
Maximum allowed component of the step   ....  0.300
Current trust radius                    ....  0.300
Updating the Hessian (BFGS)             .... done
Forming the augmented Hessian           .... done
Diagonalizing the augmented Hessian     .... done
Last element of RFO vector              ....  0.666815683
Lowest eigenvalues of augmented Hessian:
 -0.219100863  0.000022469  0.001500001  0.001721984  0.021982671
Length of the computed step             ....  1.117584216
Warning: the length of the step is outside the trust region - taking restricted step instead
The input lambda is                     ....    -0.219101
   iter:   1  x=   -0.300475  g=   14.242847 f(x)=     1.158994
   iter:   2  x=   -0.409039  g=    4.539148 f(x)=     0.492792
   iter:   3  x=   -0.534619  g=    1.575925 f(x)=     0.197904
   iter:   4  x=   -0.641554  g=    0.649554 f(x)=     0.069460
   iter:   5  x=   -0.690278  g=    0.359650 f(x)=     0.017524
   iter:   6  x=   -0.697069  g=    0.284323 f(x)=     0.001931
   iter:   7  x=   -0.697178  g=    0.275549 f(x)=     0.000030
   iter:   8  x=   -0.697178  g=    0.275412 f(x)=     0.000000
   iter:   9  x=   -0.697178  g=    0.275412 f(x)=     0.000000
The output lambda is                    ....    -0.697178 (9 iterations)
The final length of the internal step   ....  0.300000000
Converting the step to cartesian space:
 Initial RMS(Int)=    0.0832050294
Transforming coordinates:
 Iter   0:  RMS(Cart)=    0.0852254431 RMS(Int)=    0.0830621117
 Iter   1:  RMS(Cart)=    0.0007828093 RMS(Int)=    0.0005839312
 Iter   2:  RMS(Cart)=    0.0000311687 RMS(Int)=    0.0000341537
 Iter   3:  RMS(Cart)=    0.0000010853 RMS(Int)=    0.0000012658
 Iter   4:  RMS(Cart)=    0.0000000460 RMS(Int)=    0.0000000474
done
Storing new coordinates                 .... done

                                .--------------------.
          ----------------------|Geometry convergence|-------------------------
          Item                value                   Tolerance       Converged
          ---------------------------------------------------------------------
          Energy change      -0.0568937911            0.0000050000      NO
          RMS gradient        0.0543848912            0.0001000000      NO
          MAX gradient        0.0978892078            0.0003000000      NO
          RMS step            0.0832050294            0.0020000000      NO
          MAX step            0.1498869758            0.0040000000      NO
          ........................................................
          Max(Bonds)      0.0793      Max(Angles)    1.38
          Max(Dihed)        0.45      Max(Improp)    0.00
          ---------------------------------------------------------------------

The optimization has not yet converged - more geometry cycles are needed


    ---------------------------------------------------------------------------
                         Redundant Internal Coordinates
                            (Angstroem and degrees)

        Definition                    Value    dE/dq     Step     New-Value
    ----------------------------------------------------------------------------
     1. B(H   1,O   0)                1.6520  0.097889 -0.0793    1.5727   
     2. B(H   2,O   0)                1.6675  0.096525 -0.0782    1.5893   
     3. B(O   3,H   2)                3.6891  0.000953 -0.0007    3.6884   
     4. B(H   4,O   3)                1.6554  0.097576 -0.0791    1.5764   
     5. B(H   5,O   3)                1.6554  0.097576 -0.0791    1.5764   
     6. A(H   1,O   0,H   2)          101.63  0.017134   -1.38    100.25   
     7. A(O   0,H   2,O   3)          172.58 -0.000111    0.01    172.60   
     8. A(H   2,O   3,H   4)          112.22 -0.002941    0.25    112.47   
     9. A(H   4,O   3,H   5)          102.71  0.011710   -0.97    101.74   
    10. A(H   2,O   3,H   5)          112.22 -0.002941    0.25    112.47   
    11. D(O   3,H   2,O   0,H   1)    180.00 -0.000000    0.00    180.00   
    12. D(H   5,O   3,H   2,O   0)     57.54  0.005470   -0.45     57.09   
    13. D(H   4,O   3,H   2,O   0)    -57.54 -0.005470    0.45    -57.09   
    ----------------------------------------------------------------------------

         *************************************************************
[...]

Fock matrix formation       ....       1.524 sec  ( 78.3%)
  XC integration            ....       0.276 sec  ( 18.1% of F)
    Basis function eval.    ....       0.021 sec  (  7.7% of XC)
    Density eval.           ....       0.031 sec  ( 11.1% of XC)
    XC-Functional eval.     ....       0.010 sec  (  3.8% of XC)
    XC-Potential eval.      ....       0.069 sec  ( 25.1% of XC)
Diagonalization             ....       0.006 sec  (  0.3%)
Density matrix formation    ....       0.003 sec  (  0.2%)
Population analysis         ....       0.005 sec  (  0.3%)
Initial guess               ....       0.012 sec  (  0.6%)
Orbital Transformation      ....       0.000 sec  (  0.0%)
Orbital Orthonormalization  ....       0.007 sec  (  0.4%)
DIIS solution               ....       0.001 sec  (  0.0%)
SOSCF solution              ....       0.010 sec  (  0.5%)
Grid generation             ....       0.133 sec  (  6.8%)


-------------------------------------------------------------------------------
                          DFT DISPERSION CORRECTION                            
                                                                               
                              DFTD3 V3.1  Rev 1                                
                          USING Becke-Johnson damping                          
-------------------------------------------------------------------------------
The TPSSH functional is recognized
Active option DFTDOPT                   ...         4   

molecular C6(AA) [au] = 178.121597 


            DFT-D V3
 parameters
 s6 scaling factor         :     1.0000 
 a1 scaling factor         :     0.4529 
 s8 scaling factor         :     2.2382 
 a2 scaling factor         :     4.6550 
 ad hoc parameters k1-k3   :    16.0000     1.3333    -4.0000 

 Edisp/kcal,au: -0.941575856958  -0.001500496479 
 E6   /kcal   :  -0.513156978 
 E8   /kcal   :  -0.428418879 
 % E8         :  45.500198018 

-------------------------   ----------------
Dispersion correction           -0.001500496
-------------------------   ----------------


-------------------------   --------------------
FINAL SINGLE POINT ENERGY      -152.925160431033
-------------------------   --------------------

                                *** OPTIMIZATION RUN DONE ***

                            ***************************************
                            *     ORCA property calculations      *
                            ***************************************

                                    ---------------------
                                    Active property flags
                                    ---------------------
   (+) Dipole Moment


------------------------------------------------------------------------------
                       ORCA ELECTRIC PROPERTIES CALCULATION
------------------------------------------------------------------------------

Dipole Moment Calculation                       ... on
Quadrupole Moment Calculation                   ... off
Polarizability Calculation                      ... off
GBWName                                         ... 02_H2O_2.gbw
Electron density file                           ... 02_H2O_2.scfp
The origin for moment calculation is the CENTER OF MASS  = (-0.035543, -0.330654 -0.000343)

-------------
DIPOLE MOMENT
-------------
                                X             Y             Z
Electronic contribution:      0.01999       0.00042      -0.00026
Nuclear contribution   :     -0.01897      -1.00682       0.00109
                        -----------------------------------------
Total Dipole Moment    :      0.00102      -1.00641       0.00083
                        -----------------------------------------
Magnitude (a.u.)       :      1.00641
Magnitude (Debye)      :      2.55809



--------------------
Rotational spectrum 
--------------------
 
Rotational constants in cm-1:     7.021564     0.218063     0.217945 
Rotational constants in MHz : 210501.178818  6537.355694  6533.820563 

 Dipole components along the rotational axes: 
x,y,z [a.u.] :    -1.006319     0.013468     0.000869 
x,y,z [Debye]:    -2.557859     0.034233     0.002209 

 

----------------------------------------------------------------------------
                           ORCA NUMERICAL FREQUENCIES
                              (24-process run)
----------------------------------------------------------------------------

Number of atoms                ... 6
Central differences            ... used
Number of displacements        ... 36
Numerical increment            ... 5.000e-03 bohr
IR-spectrum generation         ... on
Raman-spectrum generation      ... off
Surface Crossing Hessian       ... off

 WARNING: There are more processes than displacements to do
  ====> : Reducing number of processes to  18

The output will be reduced. Please look at the following files:
SCF program output             ... >02_H2O_2.lastscf
Integral program output        ... >02_H2O_2.lastint
Gradient program output        ... >02_H2O_2.lastgrad
Dipole moment program output   ... >02_H2O_2.lastmom
AutoCI program output          ... >02_H2O_2.lastautoci


         <<< Energy and Gradient at the input geometry >>>

        <<< Energy and Gradient at displaced geometries >>>
             <<<Displacing   6/coordinate 2 (+)>>>
             <<<Displacing   1/coordinate 1 (+)>>>
             <<<Displacing   1/coordinate 3 (+)>>>
             <<<Displacing   4/coordinate 2 (+)>>>
             <<<Displacing   1/coordinate 2 (+)>>>
             <<<Displacing   5/coordinate 1 (+)>>>
             <<<Displacing   2/coordinate 1 (+)>>>
             <<<Displacing   6/coordinate 1 (+)>>>
             <<<Displacing   4/coordinate 3 (+)>>>
             <<<Displacing   3/coordinate 3 (+)>>>
             <<<Displacing   6/coordinate 3 (+)>>>
             <<<Displacing   4/coordinate 1 (+)>>>
             <<<Displacing   5/coordinate 2 (+)>>>
             <<<Displacing   2/coordinate 2 (+)>>>
             <<<Displacing   3/coordinate 1 (+)>>>
             <<<Displacing   5/coordinate 3 (+)>>>
             <<<Displacing   2/coordinate 3 (+)>>>
             <<<Displacing   3/coordinate 2 (+)>>>
             <<<Displacing   4/coordinate 1 (-)>>>
             <<<Displacing   4/coordinate 2 (-)>>>
             <<<Displacing   2/coordinate 3 (-)>>>
             <<<Displacing   3/coordinate 3 (-)>>>
             <<<Displacing   5/coordinate 1 (-)>>>
             <<<Displacing   4/coordinate 3 (-)>>>
             <<<Displacing   1/coordinate 3 (-)>>>
             <<<Displacing   3/coordinate 1 (-)>>>
             <<<Displacing   6/coordinate 1 (-)>>>
             <<<Displacing   2/coordinate 2 (-)>>>
             <<<Displacing   6/coordinate 2 (-)>>>
             <<<Displacing   5/coordinate 2 (-)>>>
             <<<Displacing   1/coordinate 1 (-)>>>
             <<<Displacing   1/coordinate 2 (-)>>>
             <<<Displacing   2/coordinate 1 (-)>>>
             <<<Displacing   5/coordinate 3 (-)>>>
             <<<Displacing   6/coordinate 3 (-)>>>
             <<<Displacing   3/coordinate 2 (-)>>>

-----------------------
VIBRATIONAL FREQUENCIES
-----------------------

Scaling factor for frequencies =  1.000000000 (already applied!)

   0:         0.00 cm**-1
   1:         0.00 cm**-1
   2:         0.00 cm**-1
   3:         0.00 cm**-1
   4:         0.00 cm**-1
   5:         0.00 cm**-1
   6:       141.78 cm**-1
   7:       170.13 cm**-1
   8:       174.94 cm**-1
   9:       191.25 cm**-1
  10:       386.83 cm**-1
  11:       654.57 cm**-1
  12:      1642.47 cm**-1
  13:      1665.19 cm**-1
  14:      3609.42 cm**-1
  15:      3760.20 cm**-1
  16:      3836.52 cm**-1
  17:      3860.33 cm**-1


------------
NORMAL MODES
------------

These modes are the cartesian displacements weighted by the diagonal matrix
M(i,i)=1/sqrt(m[i]) where m[i] is the mass of the displaced atom
Thus, these vectors are normalized but *not* orthogonal

                  0          1          2          3          4          5    
      0       0.000000   0.000000   0.000000   0.000000   0.000000   0.000000
      1       0.000000   0.000000   0.000000   0.000000   0.000000   0.000000
      2       0.000000   0.000000   0.000000   0.000000   0.000000   0.000000
      3       0.000000   0.000000   0.000000   0.000000   0.000000   0.000000
      4       0.000000   0.000000   0.000000   0.000000   0.000000   0.000000
      5       0.000000   0.000000   0.000000   0.000000   0.000000   0.000000
      6       0.000000   0.000000   0.000000   0.000000   0.000000   0.000000
      7       0.000000   0.000000   0.000000   0.000000   0.000000   0.000000
      8       0.000000   0.000000   0.000000   0.000000   0.000000   0.000000
      9       0.000000   0.000000   0.000000   0.000000   0.000000   0.000000
     10       0.000000   0.000000   0.000000   0.000000   0.000000   0.000000
     11       0.000000   0.000000   0.000000   0.000000   0.000000   0.000000
     12       0.000000   0.000000   0.000000   0.000000   0.000000   0.000000
     13       0.000000   0.000000   0.000000   0.000000   0.000000   0.000000
     14       0.000000   0.000000   0.000000   0.000000   0.000000   0.000000
     15       0.000000   0.000000   0.000000   0.000000   0.000000   0.000000
     16       0.000000   0.000000   0.000000   0.000000   0.000000   0.000000
     17       0.000000   0.000000   0.000000   0.000000   0.000000   0.000000
                  6          7          8          9         10         11    
      0       0.000113   0.000258  -0.004556  -0.012242   0.014166  -0.000058
      1       0.000288  -0.001397  -0.374203  -0.006214   0.029488  -0.000053
      2       0.049609   0.040837  -0.000554   0.000895  -0.000118  -0.028604
      3      -0.001100   0.003187   0.086567  -0.179556  -0.243597   0.000078
      4      -0.000219   0.005811  -0.159197  -0.406550  -0.580001   0.000196
      5      -0.817726  -0.034231  -0.001797  -0.001472   0.001042  -0.001568
      6       0.000028  -0.007713  -0.207764   0.395226   0.562483   0.001156
      7       0.000340  -0.000697  -0.352549  -0.063210  -0.051585   0.000639
      8       0.091014  -0.382185   0.007986  -0.008050   0.000025   0.919460
      9      -0.000081  -0.000782  -0.000610   0.038459  -0.056574  -0.000016
     10      -0.000343  -0.000307   0.342096   0.094352  -0.031220   0.000008
     11       0.023393  -0.029580   0.000555  -0.000573   0.000044  -0.037286
     12      -0.332000  -0.150840   0.103597  -0.319212   0.177546  -0.012350
     13       0.054735  -0.610344   0.523026  -0.477056   0.330383  -0.268291
     14      -0.215842   0.118762  -0.005520  -0.002596   0.004147   0.063859
     15       0.332556   0.163686   0.099598  -0.312560   0.176671   0.012305
     16      -0.053976   0.632287   0.498318  -0.452118   0.328698   0.268167
     17      -0.216140   0.118975  -0.000686   0.007001  -0.004052   0.064068
                 12         13         14         15         16         17    
      0       0.012928  -0.059236   0.018157  -0.002308  -0.052548   0.000007
      1       0.007428  -0.030098   0.054241  -0.002078   0.037883  -0.000010
      2      -0.000022   0.000108  -0.000064   0.000005   0.000049  -0.000018
      3      -0.055188   0.253979  -0.186890   0.033469   0.890000  -0.000132
      4      -0.127026   0.588410   0.115465  -0.017287  -0.400994   0.000057
      5       0.000137  -0.000794   0.000189  -0.000037  -0.001005   0.000168
      6      -0.151506   0.728690  -0.101311   0.001593  -0.056336   0.000011
      7       0.016638  -0.100619  -0.966791   0.051992  -0.197613   0.000100
      8       0.000202  -0.001002   0.000827  -0.000037   0.000221  -0.000802
      9       0.058669   0.008598  -0.002699  -0.041916   0.001088  -0.000105
     10      -0.037687  -0.010295   0.001309   0.026017  -0.000791   0.000077
     11      -0.000032  -0.000001   0.000004   0.000155  -0.000016  -0.070369
     12      -0.464993  -0.089493   0.021430   0.333932  -0.008518  -0.365097
     13       0.295502   0.076744  -0.015184  -0.207541   0.004976   0.225753
     14      -0.415611  -0.088803  -0.032681  -0.586514   0.015757   0.557962
     15      -0.464709  -0.089461   0.021417   0.332923  -0.008374   0.366763
     16       0.295167   0.076588  -0.015186  -0.207122   0.004895  -0.226983
     17       0.416116   0.088907   0.032609   0.584048  -0.015512   0.559848


-----------
IR SPECTRUM  
-----------

 Mode    freq (cm**-1)   T**2         TX         TY         TZ
-------------------------------------------------------------------
   6:       141.78  158.871239  ( -0.005909   0.014670 -12.604404)
   7:       170.13    4.262167  (  0.094188   0.309152  -2.039049)
   8:       174.94    1.222287  (  0.637690   0.903127   0.000929)
   9:       191.25  281.301335  ( -4.366182 -16.193668  -0.053892)
  10:       386.83   44.109328  (  6.641439  -0.021306   0.012552)
  11:       654.57   86.330682  (  0.010322   0.012397   9.291417)
  12:      1642.47   86.236921  ( -8.461098   3.827102   0.006095)
  13:      1665.19   35.723983  (  4.624670   3.786331  -0.010324)
  14:      3609.42  372.484758  (  1.324745 -19.254345   0.004371)
  15:      3760.20    7.970335  (  2.507326  -1.297427  -0.018219)
  16:      3836.52   65.495641  (  3.273422  -7.401375   0.000696)
  17:      3860.33   71.403403  (  0.006597  -0.004408   8.450050)

The first frequency considered to be a vibration is 6
The total number of vibrations considered is 12


--------------------------
THERMOCHEMISTRY AT 298.15K
--------------------------

Temperature         ... 298.15 K
Pressure            ... 1.00 atm
Total Mass          ... 36.03 AMU

Throughout the following assumptions are being made:
  (1) The electronic state is orbitally nondegenerate
  (2) There are no thermally accessible electronically excited states
  (3) Hindered rotations indicated by low frequency modes are not
      treated as such but are treated as vibrations and this may
      cause some error
  (4) All equations used are the standard statistical mechanics
      equations for an ideal gas
  (5) All vibrations are strictly harmonic

freq.     141.78  E(vib)   ...       0.41 
freq.     170.13  E(vib)   ...       0.38 
freq.     174.94  E(vib)   ...       0.38 
freq.     191.25  E(vib)   ...       0.36 
freq.     386.83  E(vib)   ...       0.20 
freq.     654.57  E(vib)   ...       0.08 
freq.    1642.47  E(vib)   ...       0.00 
freq.    1665.19  E(vib)   ...       0.00 
freq.    3609.42  E(vib)   ...       0.00 
freq.    3760.20  E(vib)   ...       0.00 
freq.    3836.52  E(vib)   ...       0.00 
freq.    3860.33  E(vib)   ...       0.00 

------------
INNER ENERGY
------------

The inner energy is: U= E(el) + E(ZPE) + E(vib) + E(rot) + E(trans)
    E(el)   - is the total energy from the electronic structure calculation
              = E(kin-el) + E(nuc-el) + E(el-el) + E(nuc-nuc)
    E(ZPE)  - the the zero temperature vibrational energy from the frequency calculation
    E(vib)  - the the finite temperature correction to E(ZPE) due to population
              of excited vibrational states
    E(rot)  - is the rotational thermal energy
    E(trans)- is the translational thermal energy

Summary of contributions to the inner energy U:
Electronic energy                ...   -152.92516043 Eh
Zero point energy                ...      0.04577665 Eh      28.73 kcal/mol
Thermal vibrational correction   ...      0.00290239 Eh       1.82 kcal/mol
Thermal rotational correction    ...      0.00141627 Eh       0.89 kcal/mol
Thermal translational correction ...      0.00141627 Eh       0.89 kcal/mol
-----------------------------------------------------------------------
Total thermal energy                   -152.87364884 Eh


Summary of corrections to the electronic energy:
(perhaps to be used in another calculation)
Total thermal correction                  0.00573494 Eh       3.60 kcal/mol
Non-thermal (ZPE) correction              0.04577665 Eh      28.73 kcal/mol
-----------------------------------------------------------------------
Total correction                          0.05151159 Eh      32.32 kcal/mol


--------
ENTHALPY
--------

The enthalpy is H = U + kB*T
                kB is Boltzmann's constant
Total free energy                 ...   -152.87364884 Eh 
Thermal Enthalpy correction       ...      0.00094421 Eh       0.59 kcal/mol
-----------------------------------------------------------------------
Total Enthalpy                    ...   -152.87270463 Eh


Note: Only C1 symmetry has been detected, increase convergence thresholds 
      if your molecule has a higher symmetry. Symmetry factor of 1.0 is   
      used for the rotational entropy correction. 
 

Note: Rotational entropy computed according to Herzberg 
Infrared and Raman Spectra, Chapter V,1, Van Nostrand Reinhold, 1945 
Point Group:  C1, Symmetry Number:   1  
Rotational constants in cm-1:     7.021564     0.218063     0.217945 

Vibrational entropy computed according to the QRRHO of S. Grimme
Chem.Eur.J. 2012 18 9955


-------
ENTROPY
-------

The entropy contributions are T*S = T*(S(el)+S(vib)+S(rot)+S(trans))
     S(el)   - electronic entropy
     S(vib)  - vibrational entropy
     S(rot)  - rotational entropy
     S(trans)- translational entropy
The entropies will be listed as mutliplied by the temperature to get
units of energy

Electronic entropy                ...      0.00000000 Eh      0.00 kcal/mol
Vibrational entropy               ...      0.00528807 Eh      3.32 kcal/mol
Rotational entropy                ...      0.01002893 Eh      6.29 kcal/mol
Translational entropy             ...      0.01742549 Eh     10.93 kcal/mol
-----------------------------------------------------------------------
Final entropy term                ...      0.03274248 Eh     20.55 kcal/mol

In case the symmetry of your molecule has not been determined correctly
or in case you have a reason to use a different symmetry number we print 
out the resulting rotational entropy values for sn=1,12 :
 --------------------------------------------------------
|  sn= 1 | S(rot)=       0.01002893 Eh      6.29 kcal/mol|
|  sn= 2 | S(rot)=       0.00937447 Eh      5.88 kcal/mol|
|  sn= 3 | S(rot)=       0.00899164 Eh      5.64 kcal/mol|
|  sn= 4 | S(rot)=       0.00872002 Eh      5.47 kcal/mol|
|  sn= 5 | S(rot)=       0.00850933 Eh      5.34 kcal/mol|
|  sn= 6 | S(rot)=       0.00833718 Eh      5.23 kcal/mol|
|  sn= 7 | S(rot)=       0.00819164 Eh      5.14 kcal/mol|
|  sn= 8 | S(rot)=       0.00806556 Eh      5.06 kcal/mol|
|  sn= 9 | S(rot)=       0.00795435 Eh      4.99 kcal/mol|
|  sn=10 | S(rot)=       0.00785487 Eh      4.93 kcal/mol|
|  sn=11 | S(rot)=       0.00776488 Eh      4.87 kcal/mol|
|  sn=12 | S(rot)=       0.00768273 Eh      4.82 kcal/mol|
 --------------------------------------------------------


-------------------
GIBBS FREE ENERGY
-------------------

The Gibbs free energy is G = H - T*S

Total enthalpy                    ...   -152.87270463 Eh 
Total entropy correction          ...     -0.03274248 Eh    -20.55 kcal/mol
-----------------------------------------------------------------------
Final Gibbs free energy         ...   -152.90544712 Eh

For completeness - the Gibbs free energy minus the electronic energy
G-E(el)                           ...      0.01971331 Eh     12.37 kcal/mol


Total Time for Numerical Frequencies  :       115.134 sec

Timings for individual modules:

Sum of individual times         ...      203.286 sec (=   3.388 min)
GTO integral calculation        ...       26.205 sec (=   0.437 min)  12.9 %
SCF iterations                  ...      118.450 sec (=   1.974 min)  58.3 %
SCF Gradient evaluation         ...       57.081 sec (=   0.951 min)  28.1 %
Geometry relaxation             ...        1.550 sec (=   0.026 min)   0.8 %
                             ****ORCA TERMINATED NORMALLY****
TOTAL RUN TIME: 0 days 0 hours 5 minutes 18 seconds 755 msec
