
                                 *****************
                                 * O   R   C   A *
                                 *****************

           --- An Ab Initio, DFT and Semiempirical electronic structure package ---

                  #######################################################
                  #                        -***-                        #
                  #          Department of theory and spectroscopy      #
                  #               Directorship: Frank Neese             #
                  #        Max Planck Institute fuer Kohlenforschung    #
                  #                Kaiser Wilhelm Platz 1               #
                  #                 D-45470 Muelheim/Ruhr               #
                  #                      Germany                        #
                  #                                                     #
                  #                  All rights reserved                #
                  #                        -***-                        #
                  #######################################################


                         Program Version 4.2.0 -  RELEASE  -


 With contributions from (in alphabetic order):
   Daniel Aravena         : Magnetic Suceptibility
   Michael Atanasov       : Ab Initio Ligand Field Theory (pilot matlab implementation)
   Alexander A. Auer      : GIAO ZORA, VPT2
   Ute Becker             : Parallelization
   Giovanni Bistoni       : ED, misc. LED, open-shell LED, HFLED
   Martin Brehm           : Molecular dynamics
   Dmytro Bykov           : SCF Hessian
   Vijay G. Chilkuri      : MRCI spin determinant printing, contributions to CSF-ICE
   Dipayan Datta          : RHF DLPNO-CCSD density
   Achintya Kumar Dutta   : EOM-CC, STEOM-CC
   Dmitry Ganyushin       : Spin-Orbit,Spin-Spin,Magnetic field MRCI
   Miquel Garcia          : C-PCM Hessian, Gaussian charge scheme
   Yang Guo               : DLPNO-NEVPT2, CIM, IAO-localization
   Andreas Hansen         : Spin unrestricted coupled pair/coupled cluster methods
   Benjamin Helmich-Paris : CASSCF linear response (MC-RPA)
   Lee Huntington         : MR-EOM, pCC
   Robert Izsak           : Overlap fitted RIJCOSX, COSX-SCS-MP3, EOM
   Christian Kollmar      : KDIIS, OOCD, Brueckner-CCSD(T), CCSD density
   Simone Kossmann        : Meta GGA functionals, TD-DFT gradient, OOMP2, MP2 Hessian
   Martin Krupicka        : AUTO-CI
   Lucas Lang             : DCDCAS
   Dagmar Lenk            : GEPOL surface, SMD
   Dimitrios Liakos       : Extrapolation schemes; Compound Job, initial MDCI parallelization
   Dimitrios Manganas     : Further ROCIS development; embedding schemes
   Dimitrios Pantazis     : SARC Basis sets
   Taras Petrenko         : DFT Hessian,TD-DFT gradient, ASA, ECA, R-Raman, ABS, FL, XAS/XES, NRVS
   Peter Pinski           : DLPNO-MP2, DLPNO-MP2 Gradient
   Christoph Reimann      : Effective Core Potentials
   Marius Retegan         : Local ZFS, SOC
   Christoph Riplinger    : Optimizer, TS searches, QM/MM, DLPNO-CCSD(T), (RO)-DLPNO pert. Triples
   Tobias Risthaus        : Range-separated hybrids, TD-DFT gradient, RPA, STAB
   Michael Roemelt        : Original ROCIS implementation
   Masaaki Saitow         : Open-shell DLPNO-CCSD energy and density
   Barbara Sandhoefer     : DKH picture change effects
   Avijit Sen             : IP-ROCIS
   Kantharuban Sivalingam : CASSCF convergence, NEVPT2, FIC-MRCI
   Bernardo de Souza      : ESD, SOC TD-DFT
   Georgi Stoychev        : AutoAux, RI-MP2 NMR
   Willem Van den Heuvel  : Paramagnetic NMR
   Boris Wezisla          : Elementary symmetry handling
   Frank Wennmohs         : Technical directorship


 We gratefully acknowledge several colleagues who have allowed us to
 interface, adapt or use parts of their codes:
   Stefan Grimme, W. Hujo, H. Kruse,             : VdW corrections, initial TS optimization,
                  C. Bannwarth                     DFT functionals, gCP, sTDA/sTD-DF
   Ed Valeev, F. Pavosevic, A. Kumar             : LibInt (2-el integral package), F12 methods
   Garnet Chan, S. Sharma, J. Yang, R. Olivares  : DMRG
   Ulf Ekstrom                                   : XCFun DFT Library
   Mihaly Kallay                                 : mrcc  (arbitrary order and MRCC methods)
   Andreas Klamt, Michael Diedenhofen            : otool_cosmo (COSMO solvation model)
   Jiri Pittner, Ondrej Demel                    : Mk-CCSD
   Frank Weinhold                                : gennbo (NPA and NBO analysis)
   Christopher J. Cramer and Donald G. Truhlar   : smd solvation model
   Lars Goerigk                                  : TD-DFT with DH, B97 family of functionals
   V. Asgeirsson, H. Jonsson                     : NEB implementation
   FAccTs GmbH                                   : IRC, NEB, NEB-TS, Multilevel, MM, QM/MM, CI optimization
   S Lehtola, MJT Oliveira, MAL Marques          : LibXC Library


 Your calculation uses the libint2 library for the computation of 2-el integrals
 For citations please refer to: http://libint.valeyev.net

 Your ORCA version has been built with support for libXC version: 4.2.3
 For citations please refer to: https://tddft.org/programs/libxc/

 This ORCA versions uses:
   CBLAS   interface :  Fast vector & matrix operations
   LAPACKE interface :  Fast linear algebra routines
   SCALAPACK package :  Parallel linear algebra routines


Your calculation utilizes the atom-pairwise dispersion correction
with the Becke-Johnson damping scheme (D3BJ)
Cite in your paper:
S.Grimme, S.Ehrlich, L.Goerigk, J Comput Chem, (2011), 32, 1456–1465 
S.Grimme, J.Antony, S.Ehrlich and H.Krieg, J.Chem.Phys., 132, (2010), 154104 
   

----- Orbital basis set information -----
Your calculation utilizes the basis: aug-cc-pV(T+d)Z 
             Al - Ar: T.H. Dunning, Jr., K. A. Peterson and A. K. Wilson, J. Chem. Phys.
                      114, 9244 (2001)

----- AuxJK basis set information -----
Your calculation utilizes the auxiliary basis: def2/JK
   H-Ba, Hf-Rn: F. Weigend, J. Comput. Chem. 29, 167 (2008).

================================================================================
                                        WARNINGS
                       Please study these warnings very carefully!
================================================================================


WARNING: Geometry Optimization
  ===> : Switching off AutoStart
         For restart on a previous wavefunction, please use MOREAD

INFO   : the flag for use of LIBINT has been found!

================================================================================
                                       INPUT FILE
================================================================================
NAME = 03_H2O_3.in
|  1> #
|  2> # 03_H2O_3 tpssh/aug-cc-pvt(+d)z
|  3> #
|  4> ! tpssh d3bj aug-cc-pvt(+d)z def2/jk grid4 nofinalgrid opt xyzfile numfreq
|  5> 
|  6> *xyz 0 1
|  7> O	-1.476811	-0.647642	-0.082126
|  8> H	-0.613415	-1.087457	-0.037065
|  9> H	-2.026236	-1.086841	0.568502
| 10> O	1.305672	-0.945117	-0.091536
| 11> H	1.973931	-1.196903	0.547209
| 12> H	1.22684	0.019839	-0.021857
| 13> O	0.169678	1.599733	0.108456
| 14> H	-0.629586	1.051269	0.060063
| 15> H	0.080159	2.244313	-0.595195
| 16> *
| 17> 
| 18> %maxcore 5000
| 19> 
| 20> %pal
| 21> nprocs 24
| 22> end
| 23> 
| 24> 
| 25>                          ****END OF INPUT****
================================================================================

                       *****************************
                       * Geometry Optimization Run *
                       *****************************

Geometry optimization settings:
Update method            Update   .... BFGS
Choice of coordinates    CoordSys .... Z-matrix Internals
Initial Hessian          InHess   .... Almoef's Model

Convergence Tolerances:
Energy Change            TolE     ....  5.0000e-06 Eh
Max. Gradient            TolMAXG  ....  3.0000e-04 Eh/bohr
RMS Gradient             TolRMSG  ....  1.0000e-04 Eh/bohr
Max. Displacement        TolMAXD  ....  4.0000e-03 bohr
RMS Displacement         TolRMSD  ....  2.0000e-03 bohr
Strict Convergence                ....  False
------------------------------------------------------------------------------
                        ORCA OPTIMIZATION COORDINATE SETUP
------------------------------------------------------------------------------

The optimization will be done in new redundant internal coordinates
Making redundant internal coordinates   ...  (new redundants) done
Evaluating the initial hessian          ...  (Almloef) done
Evaluating the coordinates              ...  done
Calculating the B-matrix                .... done
Calculating the G-matrix                .... done
Diagonalizing the G-matrix              .... done
The first mode is                       ....   69
The number of degrees of freedom        ....   21

    -----------------------------------------------------------------
                    Redundant Internal Coordinates


    -----------------------------------------------------------------
         Definition                    Initial Value    Approx d2E/dq
    -----------------------------------------------------------------
      1. B(H   1,O   0)                  0.9700         0.501182   
      2. B(H   2,O   0)                  0.9582         0.523473   
      3. B(O   3,H   1)                  1.9251         0.015003   
      4. B(H   4,O   3)                  0.9581         0.523592   
      5. B(H   5,H   1)                  2.1478         0.001415   
      6. B(H   5,O   3)                  0.9707         0.499960   
      7. B(O   6,H   5)                  1.9054         0.016129   
      8. B(H   7,O   0)                  1.9038         0.016228   
      9. B(H   7,H   5)                  2.1253         0.001537   
     10. B(H   7,O   6)                  0.9706         0.500180   
     11. B(H   7,H   1)                  2.1410         0.001451   
     12. B(H   8,O   6)                  0.9584         0.522930   
     13. A(H   1,O   0,H   2)          105.7245         0.320256   
     14. A(H   1,O   0,H   7)           90.2888         0.194349   
     15. A(H   2,O   0,H   7)          127.8445         0.195392   
     16. A(O   0,H   1,O   3)          148.4799         0.192494   
     17. A(O   3,H   1,H   5)           26.8674         0.111178   
     18. A(O   0,H   1,H   7)           62.7710         0.138348   
     19. A(O   3,H   1,H   7)           86.2705         0.111303   
     20. A(H   5,H   1,H   7)           59.4119         0.099575   
     21. A(O   0,H   1,H   5)          121.9527         0.138071   
     22. A(H   1,O   3,H   4)          131.0713         0.193524   
     23. A(H   1,O   3,H   5)           89.4564         0.192437   
     24. A(H   4,O   3,H   5)          105.6664         0.320141   
     25. A(H   1,H   5,O   3)           63.6762         0.138044   
     26. A(H   1,H   5,H   7)           60.1355         0.099714   
     27. A(O   3,H   5,H   7)          123.7906         0.138969   
     28. A(H   1,H   5,O   6)           87.2821         0.111545   
     29. A(O   6,H   5,H   7)           27.1690         0.111970   
     30. A(O   3,H   5,O   6)          150.9551         0.194146   
     31. A(H   7,O   6,H   8)          105.4575         0.320097   
     32. A(H   5,O   6,H   8)          124.0032         0.195220   
     33. A(H   5,O   6,H   7)           89.1365         0.194156   
     34. A(H   1,H   7,H   5)           60.4525         0.099774   
     35. A(O   0,H   7,H   5)           87.2922         0.112001   
     36. A(O   0,H   7,O   6)          150.9865         0.194302   
     37. A(H   5,H   7,O   6)           63.6945         0.138974   
     38. A(O   0,H   7,H   1)           26.9402         0.111703   
     39. A(H   1,H   7,O   6)          124.0937         0.138326   
     40. D(O   3,H   1,O   0,H   7)    -11.7716         0.380639   
     41. D(H   7,H   1,O   0,H   2)   -129.7025         0.380639   
     42. D(H   5,H   1,O   0,H   7)     -5.4848         0.380639   
     43. D(H   5,H   1,O   0,H   2)   -135.1873         0.380639   
     44. D(O   3,H   1,O   0,H   2)   -141.4741         0.380639   
     45. D(H   5,O   3,H   1,O   0)     11.8642         0.001643   
     46. D(H   4,O   3,H   1,O   0)    122.3477         0.001643   
     47. D(H   4,O   3,H   1,H   5)    110.4835         0.001643   
     48. D(H   5,O   3,H   1,H   7)      1.3903         0.001643   
     49. D(H   4,O   3,H   1,H   7)    111.8738         0.001643   
     50. D(O   6,H   5,H   1,H   7)      1.1646         0.001523   
     51. D(O   6,H   5,H   1,O   0)      6.8305         0.001523   
     52. D(O   3,H   5,H   1,H   7)   -178.3883         0.001523   
     53. D(O   6,H   5,H   1,O   3)    179.5529         0.001523   
     54. D(O   6,H   5,O   3,H   1)     -0.9199         0.378251   
     55. D(H   7,H   5,O   3,H   4)   -134.5033         0.378251   
     56. D(O   6,H   5,O   3,H   4)   -133.7414         0.378251   
     57. D(H   1,H   5,O   3,H   4)   -132.8215         0.378251   
     58. D(O   3,H   5,H   1,O   0)   -172.7224         0.001523   
     59. D(H   7,H   5,O   3,H   1)     -1.6818         0.378251   
     60. D(H   7,H   5,H   1,O   3)    178.3883         0.001523   
     61. D(H   7,H   5,H   1,O   0)      5.6659         0.001523   
     62. D(H   8,O   6,H   5,H   7)   -108.1417         0.001665   
     63. D(H   8,O   6,H   5,H   1)   -110.3539         0.001665   
     64. D(H   7,O   6,H   5,H   1)     -2.2122         0.001665   
     65. D(H   8,O   6,H   5,O   3)   -109.5285         0.001665   
     66. D(H   7,O   6,H   5,O   3)     -1.3868         0.001665   
     67. D(H   5,H   7,O   0,H   1)      4.7063         0.001667   
     68. D(H   1,H   7,O   0,H   2)    110.3109         0.001667   
     69. D(O   6,H   7,O   0,H   2)    114.8337         0.001667   
     70. D(O   6,H   7,O   0,H   1)      4.5228         0.001667   
     71. D(H   5,H   7,O   6,H   8)    125.1784         0.378680   
     72. D(H   1,H   7,O   6,H   5)      2.6771         0.378680   
     73. D(H   1,H   7,O   6,H   8)    127.8555         0.378680   
     74. D(O   0,H   7,O   6,H   5)      0.2045         0.378680   
     75. D(H   1,H   7,H   5,O   6)   -177.4517         0.001528   
     76. D(H   1,H   7,H   5,O   3)      1.7382         0.001528   
     77. D(O   0,H   7,H   5,O   6)   -179.9007         0.001528   
     78. D(O   0,H   7,H   5,H   1)     -2.4490         0.001528   
     79. D(O   0,H   7,H   5,O   3)     -0.7108         0.001528   
     80. D(O   6,H   7,H   5,H   1)    177.4517         0.001528   
     81. D(O   6,H   7,H   5,O   3)    179.1899         0.001528   
     82. D(H   5,H   7,H   1,O   3)     -0.7298         0.001525   
     83. D(H   5,H   7,H   1,O   0)   -174.5942         0.001525   
     84. D(O   0,H   7,H   1,H   5)    174.5942         0.001525   
     85. D(O   0,H   7,O   6,H   8)    125.3829         0.378680   
     86. D(O   0,H   7,H   1,O   3)    173.8644         0.001525   
     87. D(O   6,H   7,H   1,H   5)     -2.7587         0.001525   
     88. D(O   6,H   7,H   1,O   3)     -3.4885         0.001525   
     89. D(O   6,H   7,H   1,O   0)   -177.3529         0.001525   
     90. D(H   5,H   7,O   0,H   2)    115.0172         0.001667   
    -----------------------------------------------------------------

Number of atoms                         .... 9
Number of degrees of freedom            .... 90

         *************************************************************
         *                GEOMETRY OPTIMIZATION CYCLE   1            *
         *************************************************************
---------------------------------
CARTESIAN COORDINATES (ANGSTROEM)
---------------------------------
  O     -1.476811   -0.647642   -0.082126
  H     -0.613415   -1.087457   -0.037065
  H     -2.026236   -1.086841    0.568502
  O      1.305672   -0.945117   -0.091536
  H      1.973931   -1.196903    0.547209
  H      1.226840    0.019839   -0.021857
  O      0.169678    1.599733    0.108456
  H     -0.629586    1.051269    0.060063
  H      0.080159    2.244313   -0.595195

----------------------------
CARTESIAN COORDINATES (A.U.)
----------------------------
  NO LB      ZA    FRAG     MASS         X           Y           Z
   0 O     8.0000    0    15.999   -2.790768   -1.223866   -0.155196
   1 H     1.0000    0     1.008   -1.159186   -2.054996   -0.070043
   2 H     1.0000    0     1.008   -3.829031   -2.053832    1.074313
   3 O     8.0000    0    15.999    2.467363   -1.786012   -0.172978
   4 H     1.0000    0     1.008    3.730189   -2.261819    1.034075
   5 H     1.0000    0     1.008    2.318392    0.037490   -0.041304
   6 O     8.0000    0    15.999    0.320645    3.023057    0.204952
   7 H     1.0000    0     1.008   -1.189745    1.986611    0.113503
   8 H     1.0000    0     1.008    0.151479    4.241137   -1.124756

--------------------------------
INTERNAL COORDINATES (ANGSTROEM)
--------------------------------
 O      0   0   0     0.000000000000     0.00000000     0.00000000
 H      1   0   0     0.970010505491     0.00000000     0.00000000
 H      1   2   0     0.958165114482   105.72451778     0.00000000
 O      2   1   3     1.925129262935   148.47990843   218.52590542
 H      4   2   1     0.958103050774   131.07133552   122.34770223
 H      4   2   1     0.970674883368    89.45639618    11.86423463
 O      6   4   2     1.905423318701   150.95508604   359.08013207
 H      7   6   4     0.970555296437    89.13650572   358.61319453
 H      7   6   4     0.958447576846   124.00318504   250.47153616

---------------------------
INTERNAL COORDINATES (A.U.)
---------------------------
 O      0   0   0     0.000000000000     0.00000000     0.00000000
 H      1   0   0     1.833054202404     0.00000000     0.00000000
 H      1   2   0     1.810669657448   105.72451778     0.00000000
 O      2   1   3     3.637967079345   148.47990843   218.52590542
 H      4   2   1     1.810552374037   131.07133552   122.34770223
 H      4   2   1     1.834309694641    89.45639618    11.86423463
 O      6   4   2     3.600728241532   150.95508604   359.08013207
 H      7   6   4     1.834083708092    89.13650572   358.61319453
 H      7   6   4     1.811203433959   124.00318504   250.47153616

---------------------
BASIS SET INFORMATION
---------------------
There are 2 groups of distinct atoms

 Group   1 Type O   : 19s6p3d2f contracted to 5s4p3d2f pattern {88111/3111/111/11}
 Group   2 Type H   : 6s3p2d contracted to 4s3p2d pattern {3111/111/11}

Atom   0O    basis set group =>   1
Atom   1H    basis set group =>   2
Atom   2H    basis set group =>   2
Atom   3O    basis set group =>   1
Atom   4H    basis set group =>   2
Atom   5H    basis set group =>   2
Atom   6O    basis set group =>   1
Atom   7H    basis set group =>   2
Atom   8H    basis set group =>   2
----------------------------------
AUXILIARY/JK BASIS SET INFORMATION
----------------------------------
There are 2 groups of distinct atoms

 Group   1 Type O   : 14s10p6d2f1g contracted to 10s8p4d2f1g pattern {5111111111/31111111/3111/11/1}
 Group   2 Type H   : 4s2p2d contracted to 2s2p2d pattern {31/11/11}

Atom   0O    basis set group =>   1
Atom   1H    basis set group =>   2
Atom   2H    basis set group =>   2
Atom   3O    basis set group =>   1
Atom   4H    basis set group =>   2
Atom   5H    basis set group =>   2
Atom   6O    basis set group =>   1
Atom   7H    basis set group =>   2
Atom   8H    basis set group =>   2


           ************************************************************
           *        Program running with 24 parallel MPI-processes    *
           *              working on a common directory               *
           ************************************************************
------------------------------------------------------------------------------
                           ORCA GTO INTEGRAL CALCULATION
------------------------------------------------------------------------------

                         BASIS SET STATISTICS AND STARTUP INFO

 # of primitive gaussian shells          ...  156
 # of primitive gaussian functions       ...  348
 # of contracted shells                  ...   96
 # of contracted basis functions         ...  276
 Highest angular momentum                ...    3
 Maximum contraction depth               ...    8
 Integral package used                   ... LIBINT
 Integral threshhold            Thresh   ...  2.500e-11
 Primitive cut-off              TCut     ...  2.500e-12


------------------------------ INTEGRAL EVALUATION ----------------------------


 * One electron integrals 
 Pre-screening matrix                    ... done
 Shell pair data                         ... done (   0.001 sec)



           ************************************************************
           *        Program running with 24 parallel MPI-processes    *
           *              working on a common directory               *
           ************************************************************
-------------------------------------------------------------------------------
                                 ORCA SCF
-------------------------------------------------------------------------------

------------
SCF SETTINGS
------------
Hamiltonian:
 Density Functional     Method          .... DFT(GTOs)
 Exchange Functional    Exchange        .... TPSS
 Correlation Functional Correlation     .... TPSS
 LDA part of GGA corr.  LDAOpt          .... PW91-LDA
 Gradients option       PostSCFGGA      .... off
 Hybrid DFT is turned on
   Fraction HF Exchange ScalHFX         ....  0.100000
   Scaling of DF-GGA-X  ScalDFX         ....  0.900000
   Scaling of DF-GGA-C  ScalDFC         ....  1.000000
   Scaling of DF-LDA-C  ScalLDAC        ....  1.000000
   Perturbative correction              ....  0.000000
   Density functional embedding theory  .... OFF
   NL short-range parameter             ....  5.200000


General Settings:
 Integral files         IntName         .... 03_H2O_3
 Hartree-Fock type      HFTyp           .... RHF
 Total Charge           Charge          ....    0
 Multiplicity           Mult            ....    1
 Number of Electrons    NEL             ....   30
 Basis Dimension        Dim             ....  276
 Nuclear Repulsion      ENuc            ....     84.5280316478 Eh

Convergence Acceleration:
 DIIS                   CNVDIIS         .... on
   Start iteration      DIISMaxIt       ....    12
   Startup error        DIISStart       ....  0.200000
   # of expansion vecs  DIISMaxEq       ....     5
   Bias factor          DIISBfac        ....   1.050
   Max. coefficient     DIISMaxC        ....  10.000
 Newton-Raphson         CNVNR           .... off
 SOSCF                  CNVSOSCF        .... on
   Start iteration      SOSCFMaxIt      ....   150
   Startup grad/error   SOSCFStart      ....  0.003300
 Level Shifting         CNVShift        .... on
   Level shift para.    LevelShift      ....    0.2500
   Turn off err/grad.   ShiftErr        ....    0.0010
 Zerner damping         CNVZerner       .... off
 Static damping         CNVDamp         .... on
   Fraction old density DampFac         ....    0.7000
   Max. Damping (<1)    DampMax         ....    0.9800
   Min. Damping (>=0)   DampMin         ....    0.0000
   Turn off err/grad.   DampErr         ....    0.1000
 Fernandez-Rico         CNVRico         .... off

SCF Procedure:
 Maximum # iterations   MaxIter         ....   125
 SCF integral mode      SCFMode         .... Direct
   Integral package                     .... LIBINT
 Reset frequency        DirectResetFreq ....    20
 Integral Threshold     Thresh          ....  2.500e-11 Eh
 Primitive CutOff       TCut            ....  2.500e-12 Eh

Convergence Tolerance:
 Convergence Check Mode ConvCheckMode   .... Total+1el-Energy
 Convergence forced     ConvForced      .... 0
 Energy Change          TolE            ....  1.000e-08 Eh
 1-El. energy change                    ....  1.000e-05 Eh
 Orbital Gradient       TolG            ....  1.000e-05
 Orbital Rotation angle TolX            ....  1.000e-05
 DIIS Error             TolErr          ....  5.000e-07


Diagonalization of the overlap matrix:
Smallest eigenvalue                        ... 1.498e-04
Time for diagonalization                   ...    0.011 sec
Threshold for overlap eigenvalues          ... 1.000e-08
Number of eigenvalues below threshold      ... 0
Time for construction of square roots      ...    0.009 sec
Total time needed                          ...    0.020 sec

-------------------
DFT GRID GENERATION
-------------------

General Integration Accuracy     IntAcc      ...  4.670
Radial Grid Type                 RadialGrid  ... Gauss-Chebyshev
Angular Grid (max. acc.)         AngularGrid ... Lebedev-302
Angular grid pruning method      GridPruning ... 3 (G Style)
Weight generation scheme         WeightScheme... Becke
Basis function cutoff            BFCut       ...    1.0000e-11
Integration weight cutoff        WCut        ...    1.0000e-14
Grids for H and He will be reduced by one unit

# of grid points (after initial pruning)     ...  39000 (   0.0 sec)
# of grid points (after weights+screening)   ...  37273 (   0.0 sec)
nearest neighbour list constructed           ...    0.0 sec
Grid point re-assignment to atoms done       ...    0.0 sec
Grid point division into batches done        ...    0.1 sec
Reduced shell lists constructed in    0.1 sec

Total number of grid points                  ...    37273
Total number of batches                      ...      587
Average number of points per batch           ...       63
Average number of grid points per atom       ...     4141
Average number of shells per batch           ...    67.88 (70.71%)
Average number of basis functions per batch  ...   188.81 (68.41%)
Average number of large shells per batch     ...    56.00 (82.49%)
Average number of large basis fcns per batch ...   152.69 (80.87%)
Maximum spatial batch extension              ...   9.52, 16.88, 10.93 au
Average spatial batch extension              ...   0.14,  0.16,  0.15 au

Time for grid setup =    0.174 sec

------------------------------
INITIAL GUESS: MODEL POTENTIAL
------------------------------
Loading Hartree-Fock densities                     ... done
Calculating cut-offs                               ... done
Setting up the integral package                    ... done
Initializing the effective Hamiltonian             ... done
Starting the Coulomb interaction                   ... done (   0.0 sec)
Reading the grid                                   ... done
Mapping shells                                     ... done
Starting the XC term evaluation                    ... done (   0.0 sec)
  promolecular density results
     # of electrons  =     29.996930767
     EX              =    -26.217277172
     EC              =     -0.966352353
     EX+EC           =    -27.183629524
Transforming the Hamiltonian                       ... done (   0.0 sec)
Diagonalizing the Hamiltonian                      ... done (   0.0 sec)
Back transforming the eigenvectors                 ... done (   0.0 sec)
Now organizing SCF variables                       ... done
                      ------------------
                      INITIAL GUESS DONE (   0.3 sec)
                      ------------------
--------------
SCF ITERATIONS
--------------
ITER       Energy         Delta-E        Max-DP      RMS-DP      [F,P]     Damp
               ***  Starting incremental Fock matrix formation  ***
  0   -229.1616717499   0.000000000000 0.07304621  0.00121547  0.3222098 0.7000
  1   -229.2812782854  -0.119606535541 0.03584663  0.00068814  0.1230214 0.7000
                               ***Turning on DIIS***
  2   -229.3172327401  -0.035954454667 0.04840106  0.00083013  0.0284523 0.0000
  3   -229.3840716931  -0.066838953007 0.01523137  0.00035176  0.0723152 0.0000
  4   -229.3966354969  -0.012563803782 0.00290654  0.00008120  0.0132523 0.0000
                      *** Initiating the SOSCF procedure ***
                           *** Shutting down DIIS ***
                      *** Re-Reading the Fockian *** 
                      *** Removing any level shift *** 
ITER      Energy       Delta-E        Grad      Rot      Max-DP    RMS-DP
  5   -229.39722219  -0.0005866889  0.000610  0.000610  0.001772  0.000033
               *** Restarting incremental Fock matrix formation ***
  6   -229.39725491  -0.0000327205  0.000322  0.000961  0.002011  0.000036
  7   -229.39725550  -0.0000005909  0.000285  0.000158  0.000765  0.000013
  8   -229.39725952  -0.0000040240  0.000033  0.000122  0.000382  0.000007
  9   -229.39725962  -0.0000001034  0.000016  0.000023  0.000043  0.000001
 10   -229.39725963  -0.0000000054  0.000017  0.000023  0.000075  0.000001
                  ***Gradient check signals convergence***
              ***Rediagonalizing the Fockian in SOSCF/NRSCF***

               *****************************************************
               *                     SUCCESS                       *
               *           SCF CONVERGED AFTER  11 CYCLES          *
               *****************************************************


----------------
TOTAL SCF ENERGY
----------------

Total Energy       :         -229.39725964 Eh           -6242.21678 eV

Components:
Nuclear Repulsion  :           84.52803165 Eh            2300.12468 eV
Electronic Energy  :         -313.92529129 Eh           -8542.34146 eV
One Electron Energy:         -483.08807788 Eh          -13145.49490 eV
Two Electron Energy:          169.16278659 Eh            4603.15344 eV

Virial components:
Potential Energy   :         -457.70386648 Eh          -12454.75539 eV
Kinetic Energy     :          228.30660684 Eh            6212.53861 eV
Virial Ratio       :            2.00477714


DFT components:
N(Alpha)           :       14.999966766037 electrons
N(Beta)            :       14.999966766037 electrons
N(Total)           :       29.999933532075 electrons
E(X)               :      -24.339206413168 Eh       
E(C)               :       -0.994607016369 Eh       
E(XC)              :      -25.333813429537 Eh       
DFET-embed. en.    :        0.000000000000 Eh       

---------------
SCF CONVERGENCE
---------------

  Last Energy change         ...   -1.3988e-08  Tolerance :   1.0000e-08
  Last MAX-Density change    ...    2.0782e-05  Tolerance :   1.0000e-07
  Last RMS-Density change    ...    3.7952e-07  Tolerance :   5.0000e-09
  Last Orbital Gradient      ...    2.2012e-06  Tolerance :   1.0000e-05
  Last Orbital Rotation      ...    7.3083e-06  Tolerance :   1.0000e-05

             **** THE GBW FILE WAS UPDATED (03_H2O_3.gbw) ****
             **** DENSITY FILE WAS UPDATED (03_H2O_3.scfp) ****
             **** ENERGY FILE WAS UPDATED (03_H2O_3.en.tmp) ****
             **** THE GBW FILE WAS UPDATED (03_H2O_3.gbw) ****
             **** DENSITY FILE WAS UPDATED (03_H2O_3.scfp) ****
----------------
ORBITAL ENERGIES
----------------

  NO   OCC          E(Eh)            E(eV) 
   0   2.0000     -19.057355      -518.5770 
   1   2.0000     -19.055882      -518.5369 
   2   2.0000     -19.054993      -518.5127 
   3   2.0000      -1.003256       -27.3000 
   4   2.0000      -0.988163       -26.8893 
   5   2.0000      -0.986663       -26.8485 
   6   2.0000      -0.534040       -14.5320 
   7   2.0000      -0.506314       -13.7775 
   8   2.0000      -0.504608       -13.7311 
   9   2.0000      -0.388948       -10.5838 
  10   2.0000      -0.384450       -10.4614 
  11   2.0000      -0.356355        -9.6969 
  12   2.0000      -0.305063        -8.3012 
  13   2.0000      -0.297345        -8.0912 
  14   2.0000      -0.292199        -7.9511 
  15   0.0000      -0.023492        -0.6392 
  16   0.0000       0.003604         0.0981 
  17   0.0000       0.004654         0.1266 
  18   0.0000       0.037354         1.0164 
  19   0.0000       0.045696         1.2435 
  20   0.0000       0.053154         1.4464 
  21   0.0000       0.073276         1.9939 
  22   0.0000       0.084216         2.2916 
  23   0.0000       0.094000         2.5579 
  24   0.0000       0.098931         2.6920 
  25   0.0000       0.107159         2.9160 
  26   0.0000       0.114962         3.1283 
  27   0.0000       0.142193         3.8693 
  28   0.0000       0.150179         4.0866 
  29   0.0000       0.153948         4.1891 
  30   0.0000       0.157058         4.2738 
  31   0.0000       0.161033         4.3819 
  32   0.0000       0.169661         4.6167 
  33   0.0000       0.178047         4.8449 
  34   0.0000       0.186719         5.0809 
  35   0.0000       0.188395         5.1265 
  36   0.0000       0.206865         5.6291 
  37   0.0000       0.234036         6.3684 
  38   0.0000       0.236323         6.4307 
  39   0.0000       0.267743         7.2857 
  40   0.0000       0.277096         7.5402 
  41   0.0000       0.284826         7.7505 
  42   0.0000       0.300438         8.1753 
  43   0.0000       0.307045         8.3551 
  44   0.0000       0.322163         8.7665 
  45   0.0000       0.325587         8.8597 
  46   0.0000       0.333935         9.0868 
  47   0.0000       0.341176         9.2839 
  48   0.0000       0.350919         9.5490 
  49   0.0000       0.353553         9.6207 
  50   0.0000       0.360827         9.8186 
  51   0.0000       0.369240        10.0475 
  52   0.0000       0.381440        10.3795 
  53   0.0000       0.396289        10.7836 
  54   0.0000       0.440877        11.9969 
  55   0.0000       0.453260        12.3338 
  56   0.0000       0.457091        12.4381 
  57   0.0000       0.475655        12.9432 
  58   0.0000       0.523427        14.2432 
  59   0.0000       0.527457        14.3528 
  60   0.0000       0.543264        14.7830 
  61   0.0000       0.576882        15.6978 
  62   0.0000       0.595507        16.2046 
  63   0.0000       0.606424        16.5016 
  64   0.0000       0.626527        17.0487 
  65   0.0000       0.633236        17.2312 
  66   0.0000       0.641955        17.4685 
  67   0.0000       0.654750        17.8167 
  68   0.0000       0.665945        18.1213 
  69   0.0000       0.692599        18.8466 
  70   0.0000       0.699844        19.0437 
  71   0.0000       0.705904        19.2086 
  72   0.0000       0.723851        19.6970 
  73   0.0000       0.748408        20.3652 
  74   0.0000       0.782595        21.2955 
  75   0.0000       0.787776        21.4365 
  76   0.0000       0.789412        21.4810 
  77   0.0000       0.799683        21.7605 
  78   0.0000       0.811271        22.0758 
  79   0.0000       0.822140        22.3716 
  80   0.0000       0.829835        22.5810 
  81   0.0000       0.838065        22.8049 
  82   0.0000       0.849416        23.1138 
  83   0.0000       0.857946        23.3459 
  84   0.0000       0.871580        23.7169 
  85   0.0000       0.885442        24.0941 
  86   0.0000       0.893242        24.3063 
  87   0.0000       0.898948        24.4616 
  88   0.0000       0.905877        24.6502 
  89   0.0000       0.909432        24.7469 
  90   0.0000       0.945206        25.7204 
  91   0.0000       0.979164        26.6444 
  92   0.0000       0.999137        27.1879 
  93   0.0000       1.001264        27.2458 
  94   0.0000       1.017728        27.6938 
  95   0.0000       1.035721        28.1834 
  96   0.0000       1.041351        28.3366 
  97   0.0000       1.050680        28.5905 
  98   0.0000       1.062274        28.9059 
  99   0.0000       1.082317        29.4513 
 100   0.0000       1.099874        29.9291 
 101   0.0000       1.142400        31.0863 
 102   0.0000       1.144976        31.1564 
 103   0.0000       1.173557        31.9341 
 104   0.0000       1.180647        32.1270 
 105   0.0000       1.187710        32.3192 
 106   0.0000       1.203480        32.7483 
 107   0.0000       1.222847        33.2754 
 108   0.0000       1.228214        33.4214 
 109   0.0000       1.264615        34.4119 
 110   0.0000       1.274070        34.6692 
 111   0.0000       1.306827        35.5606 
 112   0.0000       1.327916        36.1344 
 113   0.0000       1.363538        37.1038 
 114   0.0000       1.373456        37.3736 
 115   0.0000       1.396141        37.9909 
 116   0.0000       1.414712        38.4963 
 117   0.0000       1.429197        38.8904 
 118   0.0000       1.470923        40.0259 
 119   0.0000       1.480888        40.2970 
 120   0.0000       1.506503        40.9940 
 121   0.0000       1.546216        42.0747 
 122   0.0000       1.560350        42.4593 
 123   0.0000       1.582986        43.0753 
 124   0.0000       1.611989        43.8644 
 125   0.0000       1.643213        44.7141 
 126   0.0000       1.662746        45.2456 
 127   0.0000       1.721392        46.8415 
 128   0.0000       1.745864        47.5074 
 129   0.0000       1.753581        47.7174 
 130   0.0000       1.786776        48.6206 
 131   0.0000       1.823099        49.6091 
 132   0.0000       1.860970        50.6396 
 133   0.0000       1.865294        50.7572 
 134   0.0000       1.889482        51.4154 
 135   0.0000       2.014340        54.8130 
 136   0.0000       2.082822        56.6765 
 137   0.0000       2.107566        57.3498 
 138   0.0000       2.126620        57.8683 
 139   0.0000       2.135721        58.1159 
 140   0.0000       2.159794        58.7710 
 141   0.0000       2.166263        58.9470 
 142   0.0000       2.181266        59.3553 
 143   0.0000       2.212907        60.2163 
 144   0.0000       2.222664        60.4818 
 145   0.0000       2.227545        60.6146 
 146   0.0000       2.242428        61.0196 
 147   0.0000       2.256120        61.3921 
 148   0.0000       2.270154        61.7740 
 149   0.0000       2.278893        62.0118 
 150   0.0000       2.312590        62.9288 
 151   0.0000       2.317440        63.0608 
 152   0.0000       2.353826        64.0509 
 153   0.0000       2.373347        64.5820 
 154   0.0000       2.423709        65.9525 
 155   0.0000       2.443805        66.4993 
 156   0.0000       2.519283        68.5532 
 157   0.0000       2.527021        68.7637 
 158   0.0000       2.539360        69.0995 
 159   0.0000       2.555780        69.5463 
 160   0.0000       2.563048        69.7441 
 161   0.0000       2.593666        70.5773 
 162   0.0000       2.612213        71.0819 
 163   0.0000       2.643011        71.9200 
 164   0.0000       2.659489        72.3684 
 165   0.0000       2.667858        72.5961 
 166   0.0000       2.673114        72.7391 
 167   0.0000       2.699458        73.4560 
 168   0.0000       2.745711        74.7146 
 169   0.0000       2.795268        76.0631 
 170   0.0000       2.801982        76.2458 
 171   0.0000       2.811818        76.5134 
 172   0.0000       2.937057        79.9214 
 173   0.0000       2.962041        80.6012 
 174   0.0000       3.559844        96.8683 
 175   0.0000       3.574483        97.2666 
 176   0.0000       3.607448        98.1637 
 177   0.0000       3.745594       101.9228 
 178   0.0000       3.756492       102.2193 
 179   0.0000       3.777044       102.7786 
 180   0.0000       3.838686       104.4560 
 181   0.0000       3.845201       104.6332 
 182   0.0000       3.892999       105.9339 
 183   0.0000       3.950588       107.5010 
 184   0.0000       3.985858       108.4607 
 185   0.0000       3.995581       108.7253 
 186   0.0000       4.005642       108.9991 
 187   0.0000       4.017252       109.3150 
 188   0.0000       4.047955       110.1504 
 189   0.0000       4.054992       110.3419 
 190   0.0000       4.077884       110.9649 
 191   0.0000       4.105979       111.7294 
 192   0.0000       4.164822       113.3306 
 193   0.0000       4.189988       114.0154 
 194   0.0000       4.215276       114.7035 
 195   0.0000       4.232565       115.1740 
 196   0.0000       4.246068       115.5414 
 197   0.0000       4.273050       116.2756 
 198   0.0000       4.291238       116.7705 
 199   0.0000       4.295676       116.8913 
 200   0.0000       4.337501       118.0294 
 201   0.0000       4.389711       119.4501 
 202   0.0000       4.415066       120.1401 
 203   0.0000       4.415990       120.1652 
 204   0.0000       4.429472       120.5321 
 205   0.0000       4.468379       121.5908 
 206   0.0000       4.483012       121.9890 
 207   0.0000       4.569300       124.3370 
 208   0.0000       4.578832       124.5964 
 209   0.0000       4.607334       125.3719 
 210   0.0000       4.680334       127.3584 
 211   0.0000       4.728581       128.6712 
 212   0.0000       4.741691       129.0280 
 213   0.0000       4.882821       132.8683 
 214   0.0000       4.904974       133.4711 
 215   0.0000       4.908981       133.5802 
 216   0.0000       4.941816       134.4737 
 217   0.0000       4.976651       135.4216 
 218   0.0000       4.982032       135.5680 
 219   0.0000       5.026813       136.7865 
 220   0.0000       5.052015       137.4723 
 221   0.0000       5.066769       137.8738 
 222   0.0000       5.067922       137.9052 
 223   0.0000       5.172346       140.7467 
 224   0.0000       5.180572       140.9705 
 225   0.0000       5.257779       143.0714 
 226   0.0000       5.267902       143.3469 
 227   0.0000       5.346973       145.4985 
 228   0.0000       5.488016       149.3365 
 229   0.0000       5.503265       149.7514 
 230   0.0000       5.516939       150.1236 
 231   0.0000       5.924929       161.2255 
 232   0.0000       5.943107       161.7202 
 233   0.0000       5.974670       162.5790 
 234   0.0000       6.198810       168.6782 
 235   0.0000       6.212046       169.0384 
 236   0.0000       6.246469       169.9751 
 237   0.0000       6.432293       175.0316 
 238   0.0000       6.457351       175.7134 
 239   0.0000       6.463794       175.8888 
 240   0.0000       6.573856       178.8837 
 241   0.0000       6.584463       179.1724 
 242   0.0000       6.588939       179.2941 
 243   0.0000       6.758559       183.9098 
 244   0.0000       6.789198       184.7435 
 245   0.0000       6.792745       184.8400 
 246   0.0000       6.876436       187.1173 
 247   0.0000       6.886158       187.3819 
 248   0.0000       6.889615       187.4759 
 249   0.0000       6.915893       188.1910 
 250   0.0000       6.929229       188.5539 
 251   0.0000       6.938225       188.7987 
 252   0.0000       6.950922       189.1442 
 253   0.0000       6.976317       189.8352 
 254   0.0000       6.991978       190.2614 
 255   0.0000       6.999143       190.4564 
 256   0.0000       7.009937       190.7501 
 257   0.0000       7.043348       191.6592 
 258   0.0000       7.051632       191.8847 
 259   0.0000       7.135395       194.1640 
 260   0.0000       7.151403       194.5996 
 261   0.0000       7.372227       200.6085 
 262   0.0000       7.381726       200.8670 
 263   0.0000       7.488847       203.7819 
 264   0.0000       7.568212       205.9415 
 265   0.0000       7.578026       206.2086 
 266   0.0000       7.591428       206.5733 
 267   0.0000       7.711123       209.8303 
 268   0.0000       7.722067       210.1281 
 269   0.0000       7.733356       210.4353 
 270   0.0000       8.470431       230.4922 
 271   0.0000       8.473816       230.5842 
 272   0.0000       8.516138       231.7359 
 273   0.0000      15.694222       427.0615 
 274   0.0000      15.923073       433.2889 
 275   0.0000      16.062229       437.0755 

                    ********************************
                    * MULLIKEN POPULATION ANALYSIS *
                    ********************************

-----------------------
MULLIKEN ATOMIC CHARGES
-----------------------
   0 O :   -0.413536
   1 H :    0.281044
   2 H :    0.133463
   3 O :   -0.426344
   4 H :    0.130860
   5 H :    0.289163
   6 O :   -0.410593
   7 H :    0.292900
   8 H :    0.123044
Sum of atomic charges:   -0.0000000

--------------------------------
MULLIKEN REDUCED ORBITAL CHARGES
--------------------------------
  0 O s       :     3.975781  s :     3.975781
      pz      :     1.556666  p :     4.430983
      px      :     1.267916
      py      :     1.606402
      dz2     :     0.000251  d :     0.006562
      dxz     :     0.000282
      dyz     :     0.000767
      dx2y2   :     0.002340
      dxy     :     0.002921
      f0      :     0.000078  f :     0.000210
      f+1     :    -0.000132
      f-1     :     0.000113
      f+2     :    -0.000002
      f-2     :     0.000185
      f+3     :     0.000025
      f-3     :    -0.000058
  1 H s       :     0.616158  s :     0.616158
      pz      :     0.045702  p :     0.071531
      px      :    -0.013866
      py      :     0.039695
      dz2     :    -0.002234  d :     0.031267
      dxz     :     0.012960
      dyz     :     0.000904
      dx2y2   :     0.011274
      dxy     :     0.008364
  2 H s       :     0.739420  s :     0.739420
      pz      :     0.035055  p :     0.109472
      px      :     0.030349
      py      :     0.044068
      dz2     :     0.008777  d :     0.017646
      dxz     :     0.000222
      dyz     :     0.002129
      dx2y2   :     0.003788
      dxy     :     0.002730
  3 O s       :     3.973953  s :     3.973953
      pz      :     1.567207  p :     4.444313
      px      :     1.568082
      py      :     1.309024
      dz2     :     0.000625  d :     0.007791
      dxz     :    -0.000037
      dyz     :     0.001226
      dx2y2   :     0.004087
      dxy     :     0.001890
      f0      :     0.000090  f :     0.000287
      f+1     :     0.000056
      f-1     :    -0.000053
      f+2     :     0.000208
      f-2     :     0.000009
      f+3     :     0.000042
      f-3     :    -0.000066
  4 H s       :     0.740686  s :     0.740686
      pz      :     0.037787  p :     0.111363
      px      :     0.037694
      py      :     0.035882
      dz2     :     0.008408  d :     0.017091
      dxz     :     0.000361
      dyz     :     0.001764
      dx2y2   :     0.003534
      dxy     :     0.003024
  5 H s       :     0.608857  s :     0.608857
      pz      :     0.044411  p :     0.068260
      px      :     0.037915
      py      :    -0.014066
      dz2     :    -0.002006  d :     0.033721
      dxz     :     0.000818
      dyz     :     0.015120
      dx2y2   :    -0.001799
      dxy     :     0.021587
  6 O s       :     3.972204  s :     3.972204
      pz      :     1.510598  p :     4.430544
      px      :     1.480013
      py      :     1.439932
      dz2     :    -0.000010  d :     0.007636
      dxz     :     0.001261
      dyz     :     0.000793
      dx2y2   :     0.001588
      dxy     :     0.004004
      f0      :     0.000047  f :     0.000209
      f+1     :     0.000041
      f-1     :    -0.000065
      f+2     :     0.000096
      f-2     :     0.000069
      f+3     :     0.000047
      f-3     :    -0.000026
  7 H s       :     0.602858  s :     0.602858
      pz      :     0.042888  p :     0.071910
      px      :     0.014681
      py      :     0.014340
      dz2     :    -0.002144  d :     0.032333
      dxz     :     0.007297
      dyz     :     0.006536
      dx2y2   :     0.021452
      dxy     :    -0.000808
  8 H s       :     0.741897  s :     0.741897
      pz      :     0.030906  p :     0.116731
      px      :     0.043039
      py      :     0.042786
      dz2     :     0.008745  d :     0.018328
      dxz     :     0.003496
      dyz     :    -0.000639
      dx2y2   :     0.002512
      dxy     :     0.004214


                     *******************************
                     * LOEWDIN POPULATION ANALYSIS *
                     *******************************

----------------------
LOEWDIN ATOMIC CHARGES
----------------------
   0 O :    1.102345
   1 H :   -0.620400
   2 H :   -0.473855
   3 O :    1.099767
   4 H :   -0.476597
   5 H :   -0.629969
   6 O :    1.101189
   7 H :   -0.630089
   8 H :   -0.472391

-------------------------------
LOEWDIN REDUCED ORBITAL CHARGES
-------------------------------
  0 O s       :     2.965503  s :     2.965503
      pz      :     1.323113  p :     3.821037
      px      :     1.187828
      py      :     1.310096
      dz2     :     0.013524  d :     0.093233
      dxz     :     0.018488
      dyz     :     0.009575
      dx2y2   :     0.017590
      dxy     :     0.034055
      f0      :     0.000420  f :     0.017883
      f+1     :     0.003195
      f-1     :     0.002828
      f+2     :     0.000424
      f-2     :     0.004412
      f+3     :     0.001360
      f-3     :     0.005244
  1 H s       :     0.550605  s :     0.550605
      pz      :     0.149052  p :     0.602568
      px      :     0.284313
      py      :     0.169203
      dz2     :     0.046608  d :     0.467227
      dxz     :     0.123914
      dyz     :     0.019584
      dx2y2   :     0.155890
      dxy     :     0.121230
  2 H s       :     0.587544  s :     0.587544
      pz      :     0.211944  p :     0.540425
      px      :     0.153635
      py      :     0.174846
      dz2     :     0.091773  d :     0.345886
      dxz     :     0.070746
      dyz     :     0.067388
      dx2y2   :     0.066916
      dxy     :     0.049064
  3 O s       :     2.967559  s :     2.967559
      pz      :     1.326000  p :     3.822780
      px      :     1.279144
      py      :     1.217635
      dz2     :     0.013062  d :     0.092297
      dxz     :     0.021919
      dyz     :     0.005914
      dx2y2   :     0.041232
      dxy     :     0.010169
      f0      :     0.000498  f :     0.017597
      f+1     :     0.003129
      f-1     :     0.002456
      f+2     :     0.003440
      f-2     :     0.001634
      f+3     :     0.001371
      f-3     :     0.005068
  4 H s       :     0.588250  s :     0.588250
      pz      :     0.211315  p :     0.542070
      px      :     0.194234
      py      :     0.136521
      dz2     :     0.090570  d :     0.346277
      dxz     :     0.084928
      dyz     :     0.051198
      dx2y2   :     0.061039
      dxy     :     0.058542
  5 H s       :     0.549775  s :     0.549775
      pz      :     0.150123  p :     0.607944
      px      :     0.157475
      py      :     0.300346
      dz2     :     0.047314  d :     0.472251
      dxz     :     0.007466
      dyz     :     0.137803
      dx2y2   :     0.119020
      dxy     :     0.160648
  6 O s       :     2.966423  s :     2.966423
      pz      :     1.309591  p :     3.821572
      px      :     1.279801
      py      :     1.232179
      dz2     :     0.015534  d :     0.092900
      dxz     :     0.001544
      dyz     :     0.026988
      dx2y2   :     0.014875
      dxy     :     0.033959
      f0      :     0.000258  f :     0.017917
      f+1     :     0.002423
      f-1     :     0.004691
      f+2     :     0.003179
      f-2     :     0.001075
      f+3     :     0.001304
      f-3     :     0.004987
  7 H s       :     0.549401  s :     0.549401
      pz      :     0.147338  p :     0.607170
      px      :     0.238990
      py      :     0.220841
      dz2     :     0.046400  d :     0.473519
      dxz     :     0.083154
      dyz     :     0.063590
      dx2y2   :     0.143542
      dxy     :     0.136834
  8 H s       :     0.586306  s :     0.586306
      pz      :     0.218282  p :     0.539970
      px      :     0.146443
      py      :     0.175245
      dz2     :     0.099356  d :     0.346115
      dxz     :     0.060198
      dyz     :     0.085798
      dx2y2   :     0.040726
      dxy     :     0.060037


                      *****************************
                      * MAYER POPULATION ANALYSIS *
                      *****************************

  NA   - Mulliken gross atomic population
  ZA   - Total nuclear charge
  QA   - Mulliken gross atomic charge
  VA   - Mayer's total valence
  BVA  - Mayer's bonded valence
  FA   - Mayer's free valence

  ATOM       NA         ZA         QA         VA         BVA        FA
  0 O      8.4135     8.0000    -0.4135     1.9117     1.9117     0.0000
  1 H      0.7190     1.0000     0.2810     0.9172     0.9172     0.0000
  2 H      0.8665     1.0000     0.1335     1.0895     1.0895     0.0000
  3 O      8.4263     8.0000    -0.4263     1.8961     1.8961    -0.0000
  4 H      0.8691     1.0000     0.1309     1.0975     1.0975    -0.0000
  5 H      0.7108     1.0000     0.2892     0.9121     0.9121    -0.0000
  6 O      8.4106     8.0000    -0.4106     1.9045     1.9045    -0.0000
  7 H      0.7071     1.0000     0.2929     0.9013     0.9013    -0.0000
  8 H      0.8770     1.0000     0.1230     1.1139     1.1139    -0.0000

  Mayer bond orders larger than 0.100000
B(  0-O ,  1-H ) :   0.8751 B(  0-O ,  2-H ) :   1.0559 B(  3-O ,  4-H ) :   1.0580 
B(  3-O ,  5-H ) :   0.8619 B(  6-O ,  7-H ) :   0.8589 B(  6-O ,  8-H ) :   1.0657 


-------
TIMINGS
-------

Total SCF time: 0 days 0 hours 0 min 10 sec 

Total time                  ....      10.498 sec
Sum of individual times     ....      10.236 sec  ( 97.5%)

Fock matrix formation       ....       9.763 sec  ( 93.0%)
  XC integration            ....       1.023 sec  ( 10.5% of F)
    Basis function eval.    ....       0.105 sec  ( 10.2% of XC)
    Density eval.           ....       0.206 sec  ( 20.1% of XC)
    XC-Functional eval.     ....       0.039 sec  (  3.8% of XC)
    XC-Potential eval.      ....       0.489 sec  ( 47.8% of XC)
Diagonalization             ....       0.071 sec  (  0.7%)
Density matrix formation    ....       0.014 sec  (  0.1%)
Population analysis         ....       0.011 sec  (  0.1%)
Initial guess               ....       0.128 sec  (  1.2%)
Orbital Transformation      ....       0.000 sec  (  0.0%)
Orbital Orthonormalization  ....       0.000 sec  (  0.0%)
DIIS solution               ....       0.027 sec  (  0.3%)
SOSCF solution              ....       0.049 sec  (  0.5%)
Grid generation             ....       0.174 sec  (  1.7%)


-------------------------------------------------------------------------------
                          DFT DISPERSION CORRECTION                            
                                                                               
                              DFTD3 V3.1  Rev 1                                
                          USING Becke-Johnson damping                          
-------------------------------------------------------------------------------
The TPSSH functional is recognized
Active option DFTDOPT                   ...         4   

molecular C6(AA) [au] = 400.690546 


            DFT-D V3
 parameters
 s6 scaling factor         :     1.0000 
 a1 scaling factor         :     0.4529 
 s8 scaling factor         :     2.2382 
 a2 scaling factor         :     4.6550 
 ad hoc parameters k1-k3   :    16.0000     1.3333    -4.0000 

 Edisp/kcal,au: -2.189542102135  -0.003489257070 
 E6   /kcal   :  -1.185544726 
 E8   /kcal   :  -1.003997377 
 % E8         :  45.854216530 

-------------------------   ----------------
Dispersion correction           -0.003489257
-------------------------   ----------------


-------------------------   --------------------
FINAL SINGLE POINT ENERGY      -229.400748901012
-------------------------   --------------------



           ************************************************************
           *        Program running with 24 parallel MPI-processes    *
           *              working on a common directory               *
           ************************************************************
------------------------------------------------------------------------------
                         ORCA SCF GRADIENT CALCULATION
------------------------------------------------------------------------------

Gradient of the Kohn-Sham DFT energy:
Kohn-Sham wavefunction type      ... RKS
Hartree-Fock exchange scaling    ...    0.100
Number of operators              ...    1
Number of atoms                  ...    9
Basis set dimensions             ...  276
Integral neglect threshold       ... 2.5e-11
Integral primitive cutoff        ... 2.5e-12

Nuclear repulsion gradient       ... done
One Electron Gradient            ... done
Pre-screening matrix             ... done
Starting the two electron gradient:
Two electron gradient done
Exchange-correlation gradient    ... done
Dispersion correction            ... done

------------------
CARTESIAN GRADIENT
------------------

   1   O   :    0.003401258   -0.004928437    0.003949566
   2   H   :   -0.007065358    0.002361284    0.000015229
   3   H   :    0.003098680    0.001408562   -0.003392284
   4   O   :    0.002303194    0.005547569    0.003916471
   5   H   :   -0.002862483    0.001990861   -0.003327533
   6   H   :    0.001785388   -0.007570711    0.000221508
   7   O   :   -0.005914185   -0.000921387   -0.004154946
   8   H   :    0.005686048    0.005201620   -0.000447740
   9   H   :   -0.000395154   -0.003172986    0.003607745

Difference to translation invariance:
           :    0.0000373878   -0.0000836247    0.0003880153

Norm of the cartesian gradient     ...    0.0200291104
RMS gradient                       ...    0.0038546041
MAX gradient                       ...    0.0075707113

-------
TIMINGS
-------

Total SCF gradient time            ...        4.698 sec

One electron gradient       ....       0.007 sec  (  0.1%)
Prescreening matrices       ....       0.042 sec  (  0.9%)
Two electron gradient       ....       3.748 sec  ( 79.8%)
XC gradient                 ....       0.455 sec  (  9.7%)
------------------------------------------------------------------------------
                         ORCA GEOMETRY RELAXATION STEP
------------------------------------------------------------------------------

Reading the OPT-File                    .... done
Getting information on internals        .... done
Copying old internal coords+grads       .... done
Making the new internal coordinates     .... (new redundants).... done
Validating the new internal coordinates .... (new redundants).... done
Calculating the B-matrix                .... done
Calculating the G,G- and P matrices     .... done
Transforming gradient to internals      .... done
Projecting the internal gradient        .... done
Number of atoms                         ....   9
Number of internal coordinates          ....  90
Current Energy                          ....  -229.400748901 Eh
Current gradient norm                   ....     0.020029110 Eh/bohr
Maximum allowed component of the step   ....  0.300
Current trust radius                    ....  0.300
Evaluating the initial hessian          ....  (Almloef) done
Projecting the Hessian                  .... done
Forming the augmented Hessian           .... done
Diagonalizing the augmented Hessian     .... done
Last element of RFO vector              ....  0.998217314
Lowest eigenvalues of augmented Hessian:
 -0.000473646  0.011353058  0.031560272  0.032531983  0.046551144
Length of the computed step             ....  0.059790705
The final length of the internal step   ....  0.059790705
Converting the step to cartesian space:
 Initial RMS(Int)=    0.0063024937
Transforming coordinates:
 Iter   0:  RMS(Cart)=    0.0062635086 RMS(Int)=    0.0062994168
 Iter   1:  RMS(Cart)=    0.0000132852 RMS(Int)=    0.0000171835
 Iter   2:  RMS(Cart)=    0.0000000674 RMS(Int)=    0.0000000637
done
Storing new coordinates                 .... done

                                .--------------------.
          ----------------------|Geometry convergence|-------------------------
          Item                value                   Tolerance       Converged
          ---------------------------------------------------------------------
          RMS gradient        0.0014963395            0.0001000000      NO
          MAX gradient        0.0059357319            0.0003000000      NO
          RMS step            0.0063024937            0.0020000000      NO
          MAX step            0.0231606405            0.0040000000      NO
          ........................................................
          Max(Bonds)      0.0123      Max(Angles)    0.36
          Max(Dihed)        0.11      Max(Improp)    0.00
          ---------------------------------------------------------------------

The optimization has not yet converged - more geometry cycles are needed


    ---------------------------------------------------------------------------
                         Redundant Internal Coordinates
                            (Angstroem and degrees)

        Definition                    Value    dE/dq     Step     New-Value
    ----------------------------------------------------------------------------
     1. B(H   1,O   0)                0.9700 -0.005825  0.0069    0.9769   
     2. B(H   2,O   0)                0.9582 -0.004833  0.0049    0.9630   
     3. B(O   3,H   1)                1.9251  0.000558 -0.0110    1.9141   
     4. B(H   4,O   3)                0.9581 -0.004870  0.0049    0.9630   
     5. B(H   5,H   1)                2.1478 -0.000575 -0.0090    2.1387   
     6. B(H   5,O   3)                0.9707 -0.005936  0.0071    0.9777   
     7. B(O   6,H   5)                1.9054  0.000654 -0.0120    1.8935   
     8. B(H   7,O   0)                1.9038  0.000721 -0.0123    1.8915   
     9. B(H   7,H   5)                2.1253 -0.000517 -0.0094    2.1159   
    10. B(H   7,O   6)                0.9706 -0.005897  0.0070    0.9776   
    11. B(H   7,H   1)                2.1410 -0.000559 -0.0097    2.1313   
    12. B(H   8,O   6)                0.9584 -0.004859  0.0049    0.9634   
    13. A(H   1,O   0,H   2)          105.72 -0.000692    0.17    105.89   
    14. A(H   1,O   0,H   7)           90.29  0.000898   -0.13     90.16   
    15. A(H   2,O   0,H   7)          127.84  0.000166   -0.04    127.80   
    16. A(O   0,H   1,O   3)          148.48 -0.000893    0.12    148.60   
    17. A(O   3,H   1,H   5)           26.87 -0.001563    0.33     27.20   
    18. A(O   0,H   1,H   7)           62.77  0.000649   -0.21     62.56   
    19. A(O   3,H   1,H   7)           86.27 -0.001549    0.33     86.60   
    20. A(H   5,H   1,H   7)           59.41  0.000013   -0.00     59.41   
    21. A(O   0,H   1,H   5)          121.95  0.000651   -0.21    121.74   
    22. A(H   1,O   3,H   4)          131.07  0.000106   -0.03    131.04   
    23. A(H   1,O   3,H   5)           89.46  0.000949   -0.15     89.30   
    24. A(H   4,O   3,H   5)          105.67 -0.000642    0.15    105.81   
    25. A(H   1,H   5,O   3)           63.68  0.000614   -0.18     63.50   
    26. A(H   1,H   5,H   7)           60.14 -0.000003   -0.01     60.12   
    27. A(O   3,H   5,H   7)          123.79  0.000613   -0.19    123.60   
    28. A(H   1,H   5,O   6)           87.28 -0.001578    0.33     87.61   
    29. A(O   6,H   5,H   7)           27.17 -0.001577    0.34     27.51   
    30. A(O   3,H   5,O   6)          150.96 -0.000964    0.15    151.10   
    31. A(H   7,O   6,H   8)          105.46 -0.000577    0.15    105.60   
    32. A(H   5,O   6,H   8)          124.00  0.000101   -0.04    123.96   
    33. A(H   5,O   6,H   7)           89.14  0.000922   -0.12     89.01   
    34. A(H   1,H   7,H   5)           60.45 -0.000010    0.02     60.47   
    35. A(O   0,H   7,H   5)           87.29 -0.001555    0.36     87.65   
    36. A(O   0,H   7,O   6)          150.99 -0.000900    0.14    151.12   
    37. A(H   5,H   7,O   6)           63.69  0.000655   -0.22     63.48   
    38. A(O   0,H   7,H   1)           26.94 -0.001547    0.34     27.28   
    39. A(H   1,H   7,O   6)          124.09  0.000647   -0.20    123.89   
    40. D(O   3,H   1,O   0,H   7)    -11.77  0.000272   -0.05    -11.82   
    41. D(H   7,H   1,O   0,H   2)   -129.70 -0.000344    0.05   -129.65   
    42. D(H   5,H   1,O   0,H   7)     -5.48 -0.000134    0.03     -5.46   
    43. D(H   5,H   1,O   0,H   2)   -135.19 -0.000477    0.08   -135.11   
    44. D(O   3,H   1,O   0,H   2)   -141.47 -0.000072    0.00   -141.47   
    45. D(H   5,O   3,H   1,O   0)     11.86 -0.000211    0.04     11.90   
    46. D(H   4,O   3,H   1,O   0)    122.35 -0.000174    0.09    122.44   
    47. D(H   4,O   3,H   1,H   5)    110.48  0.000037    0.05    110.53   
    48. D(H   5,O   3,H   1,H   7)      1.39 -0.000050    0.02      1.41   
    49. D(H   4,O   3,H   1,H   7)    111.87 -0.000013    0.07    111.94   
    50. D(O   6,H   5,H   1,H   7)      1.16 -0.000085    0.03      1.19   
    51. D(O   6,H   5,H   1,O   0)      6.83  0.000086   -0.02      6.81   
    52. D(O   3,H   5,H   1,H   7)   -178.39 -0.000061    0.02   -178.36   
    53. D(O   6,H   5,H   1,O   3)    179.55 -0.000024    0.00    179.55   
    54. D(O   6,H   5,O   3,H   1)     -0.92 -0.000019   -0.00     -0.92   
    55. D(H   7,H   5,O   3,H   4)   -134.50 -0.000257    0.03   -134.47   
    56. D(O   6,H   5,O   3,H   4)   -133.74 -0.000329    0.05   -133.69   
    57. D(H   1,H   5,O   3,H   4)   -132.82 -0.000309    0.05   -132.77   
    58. D(O   3,H   5,H   1,O   0)   -172.72  0.000109   -0.02   -172.74   
    59. D(H   7,H   5,O   3,H   1)     -1.68  0.000052   -0.02     -1.70   
    60. D(H   7,H   5,H   1,O   3)    178.39  0.000061   -0.02    178.36   
    61. D(H   7,H   5,H   1,O   0)      5.67  0.000171   -0.04      5.62   
    62. D(H   8,O   6,H   5,H   7)   -108.14  0.000036   -0.08   -108.23   
    63. D(H   8,O   6,H   5,H   1)   -110.35  0.000079   -0.11   -110.46   
    64. D(H   7,O   6,H   5,H   1)     -2.21  0.000042   -0.02     -2.23   
    65. D(H   8,O   6,H   5,O   3)   -109.53  0.000102   -0.10   -109.63   
    66. D(H   7,O   6,H   5,O   3)     -1.39  0.000065   -0.02     -1.41   
    67. D(H   5,H   7,O   0,H   1)      4.71  0.000086   -0.01      4.69   
    68. D(H   1,H   7,O   0,H   2)    110.31 -0.000105    0.10    110.41   
    69. D(O   6,H   7,O   0,H   2)    114.83 -0.000075    0.07    114.91   
    70. D(O   6,H   7,O   0,H   1)      4.52  0.000029   -0.03      4.50   
    71. D(H   5,H   7,O   6,H   8)    125.18  0.000306   -0.06    125.12   
    72. D(H   1,H   7,O   6,H   5)      2.68 -0.000035    0.02      2.70   
    73. D(H   1,H   7,O   6,H   8)    127.86  0.000272   -0.03    127.82   
    74. D(O   0,H   7,O   6,H   5)      0.20  0.000062    0.01      0.22   
    75. D(H   1,H   7,H   5,O   6)   -177.45 -0.000052    0.03   -177.43   
    76. D(H   1,H   7,H   5,O   3)      1.74 -0.000044    0.02      1.76   
    77. D(O   0,H   7,H   5,O   6)   -179.90  0.000033    0.01   -179.89   
    78. D(O   0,H   7,H   5,H   1)     -2.45  0.000085   -0.02     -2.47   
    79. D(O   0,H   7,H   5,O   3)     -0.71  0.000041   -0.00     -0.71   
    80. D(O   6,H   7,H   5,H   1)    177.45  0.000052   -0.03    177.43   
    81. D(O   6,H   7,H   5,O   3)    179.19  0.000008   -0.01    179.18   
    82. D(H   5,H   7,H   1,O   3)     -0.73  0.000066   -0.02     -0.75   
    83. D(H   5,H   7,H   1,O   0)   -174.59  0.000093   -0.02   -174.61   
    84. D(O   0,H   7,H   1,H   5)    174.59 -0.000093    0.02    174.61   
    85. D(O   0,H   7,O   6,H   8)    125.38  0.000368   -0.04    125.34   
    86. D(O   0,H   7,H   1,O   3)    173.86 -0.000027   -0.00    173.86   
    87. D(O   6,H   7,H   1,H   5)     -2.76  0.000020   -0.02     -2.78   
    88. D(O   6,H   7,H   1,O   3)     -3.49  0.000085   -0.04     -3.52   
    89. D(O   6,H   7,H   1,O   0)   -177.35  0.000112   -0.03   -177.39   
    90. D(H   5,H   7,O   0,H   2)    115.02 -0.000018    0.08    115.10   
    ----------------------------------------------------------------------------

         *************************************************************
         *                GEOMETRY OPTIMIZATION CYCLE   2            *
         *************************************************************
---------------------------------
CARTESIAN COORDINATES (ANGSTROEM)
---------------------------------
  O     -1.475516   -0.644520   -0.082754
  H     -0.605222   -1.085998   -0.038097
  H     -2.028670   -1.085363    0.570803
  O      1.302910   -0.945093   -0.093038
  H      1.974511   -1.199724    0.548465
  H      1.221261    0.026614   -0.021853
  O      0.171175    1.596734    0.109602
  H     -0.632817    1.042851    0.060172
  H      0.082600    2.245692   -0.596848

----------------------------
CARTESIAN COORDINATES (A.U.)
----------------------------
  NO LB      ZA    FRAG     MASS         X           Y           Z
   0 O     8.0000    0    15.999   -2.788321   -1.217966   -0.156382
   1 H     1.0000    0     1.008   -1.143703   -2.052239   -0.071994
   2 H     1.0000    0     1.008   -3.833630   -2.051040    1.078661
   3 O     8.0000    0    15.999    2.462144   -1.785967   -0.175816
   4 H     1.0000    0     1.008    3.731284   -2.267149    1.036448
   5 H     1.0000    0     1.008    2.307848    0.050293   -0.041297
   6 O     8.0000    0    15.999    0.323474    3.017391    0.207118
   7 H     1.0000    0     1.008   -1.195851    1.970703    0.113708
   8 H     1.0000    0     1.008    0.156090    4.243744   -1.127879

--------------------------------
INTERNAL COORDINATES (ANGSTROEM)
--------------------------------
 O      0   0   0     0.000000000000     0.00000000     0.00000000
 H      1   0   0     0.976887506886     0.00000000     0.00000000
 H      1   2   0     0.963046283725   105.89117226     0.00000000
 O      2   1   3     1.914116290803   148.59659631   218.52677629
 H      4   2   1     0.963020515624   131.04298523   122.43769081
 H      4   2   1     0.977725773788    89.30223138    11.90428651
 O      6   4   2     1.893472577889   151.10310585   359.07753605
 H      7   6   4     0.977564991490    89.01248919   358.59228026
 H      7   6   4     0.963360491013   123.96460886   250.36706933

---------------------------
INTERNAL COORDINATES (A.U.)
---------------------------
 O      0   0   0     0.000000000000     0.00000000     0.00000000
 H      1   0   0     1.846049851664     0.00000000     0.00000000
 H      1   2   0     1.819893730531   105.89117226     0.00000000
 O      2   1   3     3.617155578096   148.59659631   218.52677629
 H      4   2   1     1.819845035878   131.04298523   122.43769081
 H      4   2   1     1.847633946535    89.30223138    11.90428651
 O      6   4   2     3.578144614300   151.10310585   359.07753605
 H      7   6   4     1.847330112025    89.01248919   358.59228026
 H      7   6   4     1.820487496255   123.96460886   250.36706933



           ************************************************************
           *        Program running with 24 parallel MPI-processes    *
           *              working on a common directory               *
           ************************************************************


           ************************************************************
           *        Program running with 24 parallel MPI-processes    *
           *              working on a common directory               *
           ************************************************************

Diagonalization of the overlap matrix:
Smallest eigenvalue                        ... 1.508e-04
Time for diagonalization                   ...    0.014 sec
Threshold for overlap eigenvalues          ... 1.000e-08
Number of eigenvalues below threshold      ... 0
Time for construction of square roots      ...    0.008 sec
Total time needed                          ...    0.023 sec

-------------------
DFT GRID GENERATION
-------------------

General Integration Accuracy     IntAcc      ...  4.670
Radial Grid Type                 RadialGrid  ... Gauss-Chebyshev
Angular Grid (max. acc.)         AngularGrid ... Lebedev-302
Angular grid pruning method      GridPruning ... 3 (G Style)
Weight generation scheme         WeightScheme... Becke
Basis function cutoff            BFCut       ...    1.0000e-11
Integration weight cutoff        WCut        ...    1.0000e-14
Grids for H and He will be reduced by one unit

# of grid points (after initial pruning)     ...  39000 (   0.0 sec)
# of grid points (after weights+screening)   ...  37272 (   0.0 sec)
nearest neighbour list constructed           ...    0.0 sec
Grid point re-assignment to atoms done       ...    0.0 sec
Grid point division into batches done        ...    0.1 sec
Reduced shell lists constructed in    0.1 sec

Total number of grid points                  ...    37272
Total number of batches                      ...      586
Average number of points per batch           ...       63
Average number of grid points per atom       ...     4141
Average number of shells per batch           ...    68.08 (70.91%)
Average number of basis functions per batch  ...   189.23 (68.56%)
Average number of large shells per batch     ...    55.92 (82.15%)
Average number of large basis fcns per batch ...   152.92 (80.81%)
Maximum spatial batch extension              ...   9.54, 16.88, 10.93 au
Average spatial batch extension              ...   0.14,  0.17,  0.15 au

Time for grid setup =    0.167 sec

--------------
SCF ITERATIONS
--------------
ITER       Energy         Delta-E        Max-DP      RMS-DP      [F,P]     Damp
               ***  Starting incremental Fock matrix formation  ***
                      *** Initiating the SOSCF procedure ***
                      *** Re-Reading the Fockian *** 
                      *** Removing any level shift *** 
ITER      Energy       Delta-E        Grad      Rot      Max-DP    RMS-DP
  0   -229.39745473 -229.3974547291  0.001179  0.001179  0.003883  0.000075
               *** Restarting incremental Fock matrix formation ***
  1   -229.39752581  -0.0000710829  0.000327  0.000450  0.000806  0.000020
  2   -229.39752413   0.0000016844  0.000420  0.000229  0.000393  0.000010
  3   -229.39753193  -0.0000077985  0.000036  0.000033  0.000117  0.000002
  4   -229.39753198  -0.0000000583  0.000016  0.000007  0.000028  0.000000
                  ***Gradient check signals convergence***
              ***Rediagonalizing the Fockian in SOSCF/NRSCF***

               *****************************************************
               *                     SUCCESS                       *
               *           SCF CONVERGED AFTER   5 CYCLES          *
               *****************************************************

Total Energy       :         -229.39753200 Eh           -6242.22419 eV
  Last Energy change         ...   -1.2423e-08  Tolerance :   1.0000e-08
  Last MAX-Density change    ...    5.6890e-06  Tolerance :   1.0000e-07
             **** THE GBW FILE WAS UPDATED (03_H2O_3.gbw) ****
             **** DENSITY FILE WAS UPDATED (03_H2O_3.scfp) ****
             **** ENERGY FILE WAS UPDATED (03_H2O_3.en.tmp) ****
             **** THE GBW FILE WAS UPDATED (03_H2O_3.gbw) ****
             **** DENSITY FILE WAS UPDATED (03_H2O_3.scfp) ****
Total SCF time: 0 days 0 hours 0 min 5 sec 


-------------------------------------------------------------------------------
                          DFT DISPERSION CORRECTION                            
                                                                               
                              DFTD3 V3.1  Rev 1                                
                          USING Becke-Johnson damping                          
-------------------------------------------------------------------------------
-------------------------   ----------------
Dispersion correction           -0.003492847
-------------------------   ----------------


-------------------------   --------------------
FINAL SINGLE POINT ENERGY      -229.401024844229
-------------------------   --------------------



           ************************************************************
           *        Program running with 24 parallel MPI-processes    *
           *              working on a common directory               *
           ************************************************************
------------------------------------------------------------------------------
                         ORCA SCF GRADIENT CALCULATION
------------------------------------------------------------------------------

Gradient of the Kohn-Sham DFT energy:
Kohn-Sham wavefunction type      ... RKS
Hartree-Fock exchange scaling    ...    0.100
Number of operators              ...    1
Number of atoms                  ...    9
Basis set dimensions             ...  276
Integral neglect threshold       ... 2.5e-11
Integral primitive cutoff        ... 2.5e-12

Nuclear repulsion gradient       ... done
One Electron Gradient            ... done
Pre-screening matrix             ... done
Starting the two electron gradient:
Two electron gradient done
Exchange-correlation gradient    ... done
Dispersion correction            ... done

------------------
CARTESIAN GRADIENT
------------------

   1   O   :    0.001150354   -0.000612965    0.000849015
   2   H   :   -0.001738095    0.000037095   -0.000122522
   3   H   :   -0.000139750   -0.000612699   -0.000167331
   4   O   :   -0.000250379    0.001369283    0.000682322
   5   H   :    0.000620733    0.000251027   -0.000146267
   6   H   :    0.000974779   -0.001758713    0.000332737
   7   O   :   -0.001157640   -0.000785519   -0.000724151
   8   H   :    0.001043885    0.001642505   -0.000404646
   9   H   :   -0.000477922    0.000389409    0.000094969

Difference to translation invariance:
           :    0.0000259654   -0.0000805774    0.0003941249

Norm of the cartesian gradient     ...    0.0044417265
RMS gradient                       ...    0.0008548107
MAX gradient                       ...    0.0017587127

-------
TIMINGS
-------

Total SCF gradient time            ...        4.611 sec

One electron gradient       ....       0.013 sec  (  0.3%)
Prescreening matrices       ....       0.042 sec  (  0.9%)
Two electron gradient       ....       3.749 sec  ( 81.3%)
XC gradient                 ....       0.461 sec  ( 10.0%)
------------------------------------------------------------------------------
                         ORCA GEOMETRY RELAXATION STEP
------------------------------------------------------------------------------

Reading the OPT-File                    .... done
Getting information on internals        .... done
Copying old internal coords+grads       .... done
Making the new internal coordinates     .... (new redundants).... done
Validating the new internal coordinates .... (new redundants).... done
Calculating the B-matrix                .... done
Calculating the G,G- and P matrices     .... done
Transforming gradient to internals      .... done
Projecting the internal gradient        .... done
Number of atoms                         ....   9
Number of internal coordinates          ....  90
Current Energy                          ....  -229.401024844 Eh
Current gradient norm                   ....     0.004441727 Eh/bohr
Maximum allowed component of the step   ....  0.300
Current trust radius                    ....  0.300
Updating the Hessian (BFGS)             .... done
Forming the augmented Hessian           .... done
Diagonalizing the augmented Hessian     .... done
Last element of RFO vector              ....  0.994345345
Lowest eigenvalues of augmented Hessian:
 -0.000121346  0.009317157  0.031558657  0.032508784  0.046452627
Length of the computed step             ....  0.106798711
The final length of the internal step   ....  0.106798711
Converting the step to cartesian space:
 Initial RMS(Int)=    0.0112575726
Transforming coordinates:
 Iter   0:  RMS(Cart)=    0.0137721381 RMS(Int)=    0.0112531632
 Iter   1:  RMS(Cart)=    0.0000191919 RMS(Int)=    0.0000226370
 Iter   2:  RMS(Cart)=    0.0000001001 RMS(Int)=    0.0000001580
 Iter   3:  RMS(Cart)=    0.0000000006 RMS(Int)=    0.0000000009
done
Storing new coordinates                 .... done

[...]
             <<<Displacing   6/coordinate 2 (-)>>>
             <<<Displacing   9/coordinate 1 (+)>>>
             <<<Displacing   9/coordinate 2 (+)>>>
             <<<Displacing   9/coordinate 3 (+)>>>
             <<<Displacing   9/coordinate 1 (-)>>>
             <<<Displacing   9/coordinate 3 (-)>>>
             <<<Displacing   9/coordinate 2 (-)>>>

-----------------------
VIBRATIONAL FREQUENCIES
-----------------------

Scaling factor for frequencies =  1.000000000 (already applied!)

   0:         0.00 cm**-1
   1:         0.00 cm**-1
   2:         0.00 cm**-1
   3:         0.00 cm**-1
   4:         0.00 cm**-1
   5:         0.00 cm**-1
   6:       193.49 cm**-1
   7:       200.08 cm**-1
   8:       223.73 cm**-1
   9:       231.14 cm**-1
  10:       234.31 cm**-1
  11:       271.82 cm**-1
  12:       380.78 cm**-1
  13:       397.15 cm**-1
  14:       482.61 cm**-1
  15:       632.12 cm**-1
  16:       712.31 cm**-1
  17:       946.55 cm**-1
  18:      1651.28 cm**-1
  19:      1654.68 cm**-1
  20:      1674.37 cm**-1
  21:      3413.37 cm**-1
  22:      3490.52 cm**-1
  23:      3504.51 cm**-1
  24:      3828.53 cm**-1
  25:      3832.45 cm**-1
  26:      3835.68 cm**-1


------------
NORMAL MODES
------------

These modes are the cartesian displacements weighted by the diagonal matrix
M(i,i)=1/sqrt(m[i]) where m[i] is the mass of the displaced atom
Thus, these vectors are normalized but *not* orthogonal

                  0          1          2          3          4          5    
      0       0.000000   0.000000   0.000000   0.000000   0.000000   0.000000
      1       0.000000   0.000000   0.000000   0.000000   0.000000   0.000000
      2       0.000000   0.000000   0.000000   0.000000   0.000000   0.000000
      3       0.000000   0.000000   0.000000   0.000000   0.000000   0.000000
      4       0.000000   0.000000   0.000000   0.000000   0.000000   0.000000
      5       0.000000   0.000000   0.000000   0.000000   0.000000   0.000000
      6       0.000000   0.000000   0.000000   0.000000   0.000000   0.000000
      7       0.000000   0.000000   0.000000   0.000000   0.000000   0.000000
      8       0.000000   0.000000   0.000000   0.000000   0.000000   0.000000
      9       0.000000   0.000000   0.000000   0.000000   0.000000   0.000000
     10       0.000000   0.000000   0.000000   0.000000   0.000000   0.000000
     11       0.000000   0.000000   0.000000   0.000000   0.000000   0.000000
     12       0.000000   0.000000   0.000000   0.000000   0.000000   0.000000
     13       0.000000   0.000000   0.000000   0.000000   0.000000   0.000000
     14       0.000000   0.000000   0.000000   0.000000   0.000000   0.000000
     15       0.000000   0.000000   0.000000   0.000000   0.000000   0.000000
     16       0.000000   0.000000   0.000000   0.000000   0.000000   0.000000
     17       0.000000   0.000000   0.000000   0.000000   0.000000   0.000000
     18       0.000000   0.000000   0.000000   0.000000   0.000000   0.000000
     19       0.000000   0.000000   0.000000   0.000000   0.000000   0.000000
     20       0.000000   0.000000   0.000000   0.000000   0.000000   0.000000
     21       0.000000   0.000000   0.000000   0.000000   0.000000   0.000000
     22       0.000000   0.000000   0.000000   0.000000   0.000000   0.000000
     23       0.000000   0.000000   0.000000   0.000000   0.000000   0.000000
     24       0.000000   0.000000   0.000000   0.000000   0.000000   0.000000
     25       0.000000   0.000000   0.000000   0.000000   0.000000   0.000000
     26       0.000000   0.000000   0.000000   0.000000   0.000000   0.000000
                  6          7          8          9         10         11    
      0       0.264495  -0.159628  -0.049894   0.240626   0.023275  -0.001561
      1      -0.110328  -0.232524   0.043891   0.183292   0.036245   0.011022
      2       0.011566  -0.022015   0.042872   0.038955  -0.002063   0.005528
      3       0.310873  -0.081112  -0.070951   0.228275  -0.049605   0.051380
      4      -0.027575  -0.064247  -0.001896   0.125882  -0.085382   0.076299
      5       0.046795  -0.024592  -0.015110   0.079280   0.127669  -0.236477
      6       0.084437  -0.078365  -0.334169  -0.018845  -0.179820   0.270891
      7      -0.518759  -0.344682  -0.611772  -0.147376   0.037868   0.032246
      8      -0.333767  -0.021815  -0.504686  -0.323014  -0.147640   0.213725
      9      -0.273865  -0.134840   0.081059  -0.199950  -0.003510   0.032122
     10      -0.106450   0.249411  -0.014903   0.191925  -0.017808   0.012842
     11      -0.009568   0.027343  -0.016104   0.010400   0.015964  -0.039782
     12      -0.344928   0.084905  -0.138905  -0.244599   0.532095  -0.441135
     13      -0.220553   0.125945   0.087228   0.249999  -0.116970  -0.253071
     14       0.008672  -0.212371   0.214213   0.069013  -0.486406   0.268294
     15      -0.056808  -0.130928  -0.030316  -0.285534   0.007784  -0.022740
     16      -0.078759   0.236870  -0.019088   0.207866  -0.041720  -0.019688
     17      -0.040337   0.205447  -0.090859  -0.035545   0.239382   0.232413
     18       0.012709   0.264946   0.015809  -0.011048  -0.050487  -0.039624
     19       0.254887  -0.006127   0.011627  -0.360735   0.023530   0.015255
     20       0.014271   0.007735  -0.011210  -0.040107   0.021028   0.026316
     21       0.061500   0.152586  -0.048853  -0.082529  -0.001782  -0.021443
     22       0.168167   0.150455   0.066077  -0.309707  -0.050108  -0.011216
     23       0.186982   0.069207   0.295839   0.095376   0.051393   0.010291
     24      -0.108065   0.521483  -0.122375  -0.067023   0.178951   0.306890
     25       0.072615  -0.275126  -0.165183  -0.356538  -0.409791  -0.445468
     26      -0.126567  -0.223216  -0.146328  -0.031892  -0.338798  -0.362252
                 12         13         14         15         16         17    
      0       0.031690  -0.000384  -0.006443  -0.024727  -0.015943  -0.025967
      1      -0.028066  -0.013698   0.024001  -0.017533   0.015659   0.003449
      2       0.011391  -0.043180   0.000963  -0.030148   0.021527  -0.007904
      3      -0.059669  -0.055464   0.068957   0.273831  -0.029154   0.160904
      4      -0.152794  -0.122319   0.127186   0.651644  -0.037547   0.399449
      5       0.416303   0.012218  -0.366749   0.456504  -0.154102   0.231117
      6      -0.353198   0.031353   0.361787   0.063230   0.020880   0.089694
      7       0.247971   0.326942  -0.279785  -0.017329  -0.199625  -0.152082
      8      -0.124140   0.159604   0.110089   0.034949  -0.065046  -0.000771
      9       0.015187  -0.010961  -0.010681  -0.003735  -0.024160   0.013605
     10      -0.012085  -0.016582  -0.049313  -0.010231   0.003381  -0.019277
     11      -0.044802   0.004087   0.025205   0.001830   0.017053  -0.018807
     12      -0.142185   0.024345   0.284925   0.013753   0.015112   0.038067
     13       0.293643   0.383406   0.437043  -0.034495   0.073746   0.131519
     14       0.211845   0.129121  -0.042957  -0.021044   0.010760   0.024141
     15      -0.264047  -0.102853  -0.312436   0.349914   0.468697  -0.479131
     16      -0.022857   0.017619  -0.048915   0.056861   0.100168  -0.098289
     17      -0.181485  -0.368066  -0.225861  -0.250943  -0.402586   0.308485
     18      -0.021197   0.030648  -0.015153  -0.009789  -0.021926   0.014068
     19       0.010804   0.026456  -0.005497  -0.017944   0.016900   0.023471
     20       0.033404   0.032721   0.009768   0.010414   0.030731   0.007516
     21      -0.063626   0.147053  -0.192268  -0.158653   0.342455   0.335913
     22       0.121491  -0.205770   0.253957   0.176045  -0.430562  -0.406779
     23      -0.303771   0.413082  -0.042377   0.131169  -0.434905  -0.256279
     24       0.475126  -0.350820   0.301331   0.065046   0.166536  -0.172523
     25      -0.021657  -0.339194  -0.000488  -0.107238  -0.076618   0.004872
     26      -0.018647  -0.244817  -0.002530  -0.066475  -0.054243  -0.002033
                 18         19         20         21         22         23    
      0       0.009910   0.007141   0.005421  -0.024804  -0.006001   0.044502
      1      -0.030761  -0.015288  -0.031114   0.012895   0.003705  -0.025270
      2       0.029365   0.020482   0.027527  -0.004155  -0.001908   0.007448
      3       0.153649   0.082500   0.183160   0.411877   0.112639  -0.780939
      4       0.264116   0.134717   0.305487  -0.206297  -0.052147   0.369134
      5      -0.392867  -0.236074  -0.373975   0.019852   0.007171  -0.031825
      6      -0.323073  -0.178996  -0.322097  -0.044107  -0.020166   0.085095
      7       0.243485   0.122859   0.237142  -0.022992  -0.015071   0.032948
      8      -0.108199  -0.066940  -0.108370   0.044318   0.023231  -0.085418
      9      -0.024385   0.009481   0.020330   0.002864  -0.001789   0.000804
     10      -0.028579   0.009510   0.015508  -0.038692   0.041649  -0.014366
     11      -0.032831   0.015774   0.028452  -0.007165   0.008005  -0.002168
     12       0.055177  -0.004145  -0.007638   0.054299  -0.061390   0.006572
     13       0.471976  -0.171085  -0.328845  -0.036027   0.047035  -0.014705
     14       0.138481  -0.061749  -0.117932   0.054033  -0.066282   0.012476
     15       0.356212  -0.141966  -0.320522  -0.065068   0.085931  -0.028535
     16      -0.016240   0.002198   0.008374   0.637892  -0.703320   0.238357
     17       0.446776  -0.185110  -0.332109   0.060896  -0.059951   0.020074
     18      -0.000282   0.040050  -0.019927   0.029506   0.033899   0.020436
     19      -0.002296  -0.005641   0.007880   0.020005   0.021573   0.012614
     20      -0.003710   0.044552  -0.019421   0.006193   0.006064   0.004594
     21      -0.009439  -0.173121   0.117473  -0.483484  -0.546912  -0.331805
     22       0.007397   0.329076  -0.220010  -0.339319  -0.395485  -0.244871
     23       0.022557  -0.564771   0.269398  -0.040574  -0.040062  -0.023530
     24       0.001708  -0.483771   0.257178   0.006396   0.015494   0.006155
     25       0.007549  -0.236540   0.120486   0.058672   0.056737   0.048029
     26       0.007156  -0.167949   0.082749  -0.057131  -0.057132  -0.048504
                  24         25         26    
      0      -0.005316   0.026441  -0.031656
      1      -0.001638   0.012505  -0.014321
      2       0.004894  -0.028649   0.033172
      3       0.023811  -0.060196   0.080765
      4      -0.013367   0.042366  -0.054586
      5       0.004089  -0.018204   0.024852
      6       0.061539  -0.358198   0.417270
      7       0.042594  -0.240445   0.279522
      8      -0.082128   0.474051  -0.551103
      9       0.006692   0.029481   0.024537
     10      -0.003829  -0.020386  -0.015996
     11       0.007538   0.032288   0.026586
     12      -0.109390  -0.471621  -0.389062
     13       0.053780   0.228637   0.189694
     14      -0.125422  -0.539855  -0.445320
     15       0.003573   0.004120   0.005350
     16       0.007151   0.092539   0.062560
     17       0.006928   0.027185   0.022124
     18      -0.005219  -0.000506   0.001024
     19      -0.042256   0.002202   0.008871
     20       0.044866  -0.002905  -0.009187
     21       0.098493   0.006337  -0.020614
     22       0.050007   0.006603  -0.010606
     23       0.033758  -0.002470  -0.005810
     24      -0.017029  -0.000018   0.003044
     25       0.617285  -0.039566  -0.126192
     26      -0.746673   0.047634   0.152586


-----------
IR SPECTRUM  
-----------

 Mode    freq (cm**-1)   T**2         TX         TY         TZ
-------------------------------------------------------------------
   6:       193.49   22.145880  (  2.614076  -3.667193  -1.365349)
   7:       200.08   14.201095  (  2.948945   2.049170  -1.142683)
   8:       223.73  113.390389  ( -8.593449  -5.791163  -2.450602)
   9:       231.14    9.861698  ( -2.978443  -0.766691  -0.634633)
  10:       234.31  121.421827  (  4.070929  -8.451287  -5.781445)
  11:       271.82   52.401637  (  1.952731  -6.845200   1.315950)
  12:       380.78   79.298806  ( -5.840593   6.721495   0.088204)
  13:       397.15   24.586630  ( -4.845913  -0.192894   1.032737)
  14:       482.61  122.880206  (  5.993053   7.808820  -5.097633)
  15:       632.12  181.651111  ( 11.115079   7.173632   2.577814)
  16:       712.31  284.013093  (  9.587765 -10.005498  -9.590509)
  17:       946.55    8.093489  ( -0.609890  -1.270133   2.471495)
  18:      1651.28   46.081089  (  3.796381   5.575737   0.761406)
  19:      1654.68   94.656701  ( -5.266500   3.084267  -7.576805)
  20:      1674.37   12.438838  ( -0.420084   1.136652  -3.312158)
  21:      3413.37   18.917741  ( -4.035594   1.621842  -0.036745)
  22:      3490.52  697.731009  ( -0.747988 -26.401316   0.376848)
  23:      3504.51  646.291497  (-25.405948   0.761555   0.499329)
  24:      3828.53   82.397456  (  2.778133   7.255319  -4.694654)
  25:      3832.45   76.858635  ( -8.134462   3.269397   0.014244)
  26:      3835.68   27.806439  (  2.033208   2.748333  -4.014869)

The first frequency considered to be a vibration is 6
The total number of vibrations considered is 21


--------------------------
THERMOCHEMISTRY AT 298.15K
--------------------------

Temperature         ... 298.15 K
Pressure            ... 1.00 atm
Total Mass          ... 54.05 AMU

Throughout the following assumptions are being made:
  (1) The electronic state is orbitally nondegenerate
  (2) There are no thermally accessible electronically excited states
  (3) Hindered rotations indicated by low frequency modes are not
      treated as such but are treated as vibrations and this may
      cause some error
  (4) All equations used are the standard statistical mechanics
      equations for an ideal gas
  (5) All vibrations are strictly harmonic

freq.     193.49  E(vib)   ...       0.36 
freq.     200.08  E(vib)   ...       0.35 
freq.     223.73  E(vib)   ...       0.33 
freq.     231.14  E(vib)   ...       0.32 
freq.     234.31  E(vib)   ...       0.32 
freq.     271.82  E(vib)   ...       0.29 
freq.     380.78  E(vib)   ...       0.21 
freq.     397.15  E(vib)   ...       0.20 
freq.     482.61  E(vib)   ...       0.15 
freq.     632.12  E(vib)   ...       0.09 
freq.     712.31  E(vib)   ...       0.07 
freq.     946.55  E(vib)   ...       0.03 
freq.    1651.28  E(vib)   ...       0.00 
freq.    1654.68  E(vib)   ...       0.00 
freq.    1674.37  E(vib)   ...       0.00 
freq.    3413.37  E(vib)   ...       0.00 
freq.    3490.52  E(vib)   ...       0.00 
freq.    3504.51  E(vib)   ...       0.00 
freq.    3828.53  E(vib)   ...       0.00 
freq.    3832.45  E(vib)   ...       0.00 
freq.    3835.68  E(vib)   ...       0.00 

------------
INNER ENERGY
------------

The inner energy is: U= E(el) + E(ZPE) + E(vib) + E(rot) + E(trans)
    E(el)   - is the total energy from the electronic structure calculation
              = E(kin-el) + E(nuc-el) + E(el-el) + E(nuc-nuc)
    E(ZPE)  - the the zero temperature vibrational energy from the frequency calculation
    E(vib)  - the the finite temperature correction to E(ZPE) due to population
              of excited vibrational states
    E(rot)  - is the rotational thermal energy
    E(trans)- is the translational thermal energy

Summary of contributions to the inner energy U:
Electronic energy                ...   -229.40131350 Eh
Zero point energy                ...      0.07242630 Eh      45.45 kcal/mol
Thermal vibrational correction   ...      0.00431698 Eh       2.71 kcal/mol
Thermal rotational correction    ...      0.00141627 Eh       0.89 kcal/mol
Thermal translational correction ...      0.00141627 Eh       0.89 kcal/mol
-----------------------------------------------------------------------
Total thermal energy                   -229.32173768 Eh


Summary of corrections to the electronic energy:
(perhaps to be used in another calculation)
Total thermal correction                  0.00714952 Eh       4.49 kcal/mol
Non-thermal (ZPE) correction              0.07242630 Eh      45.45 kcal/mol
-----------------------------------------------------------------------
Total correction                          0.07957582 Eh      49.93 kcal/mol


--------
ENTHALPY
--------

The enthalpy is H = U + kB*T
                kB is Boltzmann's constant
Total free energy                 ...   -229.32173768 Eh 
Thermal Enthalpy correction       ...      0.00094421 Eh       0.59 kcal/mol
-----------------------------------------------------------------------
Total Enthalpy                    ...   -229.32079347 Eh


Note: Only C1 symmetry has been detected, increase convergence thresholds 
      if your molecule has a higher symmetry. Symmetry factor of 1.0 is   
      used for the rotational entropy correction. 
 

Note: Rotational entropy computed according to Herzberg 
Infrared and Raman Spectra, Chapter V,1, Van Nostrand Reinhold, 1945 
Point Group:  C1, Symmetry Number:   1  
Rotational constants in cm-1:     0.236467     0.233015     0.120063 

Vibrational entropy computed according to the QRRHO of S. Grimme
Chem.Eur.J. 2012 18 9955


-------
ENTROPY
-------

The entropy contributions are T*S = T*(S(el)+S(vib)+S(rot)+S(trans))
     S(el)   - electronic entropy
     S(vib)  - vibrational entropy
     S(rot)  - rotational entropy
     S(trans)- translational entropy
The entropies will be listed as mutliplied by the temperature to get
units of energy

Electronic entropy                ...      0.00000000 Eh      0.00 kcal/mol
Vibrational entropy               ...      0.00718410 Eh      4.51 kcal/mol
Rotational entropy                ...      0.01187992 Eh      7.45 kcal/mol
Translational entropy             ...      0.01799974 Eh     11.29 kcal/mol
-----------------------------------------------------------------------
Final entropy term                ...      0.03706375 Eh     23.26 kcal/mol

In case the symmetry of your molecule has not been determined correctly
or in case you have a reason to use a different symmetry number we print 
out the resulting rotational entropy values for sn=1,12 :
 --------------------------------------------------------
|  sn= 1 | S(rot)=       0.01187992 Eh      7.45 kcal/mol|
|  sn= 2 | S(rot)=       0.01122546 Eh      7.04 kcal/mol|
|  sn= 3 | S(rot)=       0.01084263 Eh      6.80 kcal/mol|
|  sn= 4 | S(rot)=       0.01057101 Eh      6.63 kcal/mol|
|  sn= 5 | S(rot)=       0.01036032 Eh      6.50 kcal/mol|
|  sn= 6 | S(rot)=       0.01018817 Eh      6.39 kcal/mol|
|  sn= 7 | S(rot)=       0.01004263 Eh      6.30 kcal/mol|
|  sn= 8 | S(rot)=       0.00991655 Eh      6.22 kcal/mol|
|  sn= 9 | S(rot)=       0.00980534 Eh      6.15 kcal/mol|
|  sn=10 | S(rot)=       0.00970586 Eh      6.09 kcal/mol|
|  sn=11 | S(rot)=       0.00961587 Eh      6.03 kcal/mol|
|  sn=12 | S(rot)=       0.00953372 Eh      5.98 kcal/mol|
 --------------------------------------------------------


-------------------
GIBBS FREE ENERGY
-------------------

The Gibbs free energy is G = H - T*S

Total enthalpy                    ...   -229.32079347 Eh 
Total entropy correction          ...     -0.03706375 Eh    -23.26 kcal/mol
-----------------------------------------------------------------------
Final Gibbs free energy         ...   -229.35785722 Eh

For completeness - the Gibbs free energy minus the electronic energy
G-E(el)                           ...      0.04345628 Eh     27.27 kcal/mol


Total Time for Numerical Frequencies  :       719.753 sec

Timings for individual modules:

Sum of individual times         ...      201.025 sec (=   3.350 min)
GTO integral calculation        ...       11.707 sec (=   0.195 min)   5.8 %
SCF iterations                  ...      108.180 sec (=   1.803 min)  53.8 %
SCF Gradient evaluation         ...       80.289 sec (=   1.338 min)  39.9 %
Geometry relaxation             ...        0.849 sec (=   0.014 min)   0.4 %
                             ****ORCA TERMINATED NORMALLY****
TOTAL RUN TIME: 0 days 0 hours 15 minutes 14 seconds 683 msec
