
                                 *****************
                                 * O   R   C   A *
                                 *****************

           --- An Ab Initio, DFT and Semiempirical electronic structure package ---

                  #######################################################
                  #                        -***-                        #
                  #          Department of theory and spectroscopy      #
                  #               Directorship: Frank Neese             #
                  #        Max Planck Institute fuer Kohlenforschung    #
                  #                Kaiser Wilhelm Platz 1               #
                  #                 D-45470 Muelheim/Ruhr               #
                  #                      Germany                        #
                  #                                                     #
                  #                  All rights reserved                #
                  #                        -***-                        #
                  #######################################################


                         Program Version 4.2.0 -  RELEASE  -


 With contributions from (in alphabetic order):
   Daniel Aravena         : Magnetic Suceptibility
   Michael Atanasov       : Ab Initio Ligand Field Theory (pilot matlab implementation)
   Alexander A. Auer      : GIAO ZORA, VPT2
   Ute Becker             : Parallelization
   Giovanni Bistoni       : ED, misc. LED, open-shell LED, HFLED
   Martin Brehm           : Molecular dynamics
   Dmytro Bykov           : SCF Hessian
   Vijay G. Chilkuri      : MRCI spin determinant printing, contributions to CSF-ICE
   Dipayan Datta          : RHF DLPNO-CCSD density
   Achintya Kumar Dutta   : EOM-CC, STEOM-CC
   Dmitry Ganyushin       : Spin-Orbit,Spin-Spin,Magnetic field MRCI
   Miquel Garcia          : C-PCM Hessian, Gaussian charge scheme
   Yang Guo               : DLPNO-NEVPT2, CIM, IAO-localization
   Andreas Hansen         : Spin unrestricted coupled pair/coupled cluster methods
   Benjamin Helmich-Paris : CASSCF linear response (MC-RPA)
   Lee Huntington         : MR-EOM, pCC
   Robert Izsak           : Overlap fitted RIJCOSX, COSX-SCS-MP3, EOM
   Christian Kollmar      : KDIIS, OOCD, Brueckner-CCSD(T), CCSD density
   Simone Kossmann        : Meta GGA functionals, TD-DFT gradient, OOMP2, MP2 Hessian
   Martin Krupicka        : AUTO-CI
   Lucas Lang             : DCDCAS
   Dagmar Lenk            : GEPOL surface, SMD
   Dimitrios Liakos       : Extrapolation schemes; Compound Job, initial MDCI parallelization
   Dimitrios Manganas     : Further ROCIS development; embedding schemes
   Dimitrios Pantazis     : SARC Basis sets
   Taras Petrenko         : DFT Hessian,TD-DFT gradient, ASA, ECA, R-Raman, ABS, FL, XAS/XES, NRVS
   Peter Pinski           : DLPNO-MP2, DLPNO-MP2 Gradient
   Christoph Reimann      : Effective Core Potentials
   Marius Retegan         : Local ZFS, SOC
   Christoph Riplinger    : Optimizer, TS searches, QM/MM, DLPNO-CCSD(T), (RO)-DLPNO pert. Triples
   Tobias Risthaus        : Range-separated hybrids, TD-DFT gradient, RPA, STAB
   Michael Roemelt        : Original ROCIS implementation
   Masaaki Saitow         : Open-shell DLPNO-CCSD energy and density
   Barbara Sandhoefer     : DKH picture change effects
   Avijit Sen             : IP-ROCIS
   Kantharuban Sivalingam : CASSCF convergence, NEVPT2, FIC-MRCI
   Bernardo de Souza      : ESD, SOC TD-DFT
   Georgi Stoychev        : AutoAux, RI-MP2 NMR
   Willem Van den Heuvel  : Paramagnetic NMR
   Boris Wezisla          : Elementary symmetry handling
   Frank Wennmohs         : Technical directorship


 We gratefully acknowledge several colleagues who have allowed us to
 interface, adapt or use parts of their codes:
   Stefan Grimme, W. Hujo, H. Kruse,             : VdW corrections, initial TS optimization,
                  C. Bannwarth                     DFT functionals, gCP, sTDA/sTD-DF
   Ed Valeev, F. Pavosevic, A. Kumar             : LibInt (2-el integral package), F12 methods
   Garnet Chan, S. Sharma, J. Yang, R. Olivares  : DMRG
   Ulf Ekstrom                                   : XCFun DFT Library
   Mihaly Kallay                                 : mrcc  (arbitrary order and MRCC methods)
   Andreas Klamt, Michael Diedenhofen            : otool_cosmo (COSMO solvation model)
   Jiri Pittner, Ondrej Demel                    : Mk-CCSD
   Frank Weinhold                                : gennbo (NPA and NBO analysis)
   Christopher J. Cramer and Donald G. Truhlar   : smd solvation model
   Lars Goerigk                                  : TD-DFT with DH, B97 family of functionals
   V. Asgeirsson, H. Jonsson                     : NEB implementation
   FAccTs GmbH                                   : IRC, NEB, NEB-TS, Multilevel, MM, QM/MM, CI optimization
   S Lehtola, MJT Oliveira, MAL Marques          : LibXC Library


 Your calculation uses the libint2 library for the computation of 2-el integrals
 For citations please refer to: http://libint.valeyev.net

 Your ORCA version has been built with support for libXC version: 4.2.3
 For citations please refer to: https://tddft.org/programs/libxc/

 This ORCA versions uses:
   CBLAS   interface :  Fast vector & matrix operations
   LAPACKE interface :  Fast linear algebra routines
   SCALAPACK package :  Parallel linear algebra routines


Your calculation utilizes the atom-pairwise dispersion correction
with the Becke-Johnson damping scheme (D3BJ)
Cite in your paper:
S.Grimme, S.Ehrlich, L.Goerigk, J Comput Chem, (2011), 32, 1456–1465 
S.Grimme, J.Antony, S.Ehrlich and H.Krieg, J.Chem.Phys., 132, (2010), 154104 
   

----- Orbital basis set information -----
Your calculation utilizes the basis: aug-cc-pV(T+d)Z 
             Al - Ar: T.H. Dunning, Jr., K. A. Peterson and A. K. Wilson, J. Chem. Phys.
                      114, 9244 (2001)

----- AuxJK basis set information -----
Your calculation utilizes the auxiliary basis: def2/JK
   H-Ba, Hf-Rn: F. Weigend, J. Comput. Chem. 29, 167 (2008).

================================================================================
                                        WARNINGS
                       Please study these warnings very carefully!
================================================================================


WARNING: Geometry Optimization
  ===> : Switching off AutoStart
         For restart on a previous wavefunction, please use MOREAD

INFO   : the flag for use of LIBINT has been found!

================================================================================
                                       INPUT FILE
================================================================================
NAME = 04_H2O_4.in
|  1> #
|  2> # 04_H2O_4 tpssh/aug-cc-pvt(+d)z
|  3> #
|  4> ! tpssh d3bj aug-cc-pvt(+d)z def2/jk grid4 nofinalgrid opt xyzfile numfreq
|  5> 
|  6> *xyz 0 1
|  7> O	1.372659		-1.372658	0.015734
|  8> H	0.406261		-1.511316	-0.008945
|  9> H	1.683553		-1.872433	0.772059
| 10> O	-1.372658		-1.372658	-0.015734
| 11> H	-1.511316		-0.406261	0.008945
| 12> H	-1.872433		-1.683553	-0.772059
| 13> O	-1.372658		1.372659	0.015734
| 14> H	-0.406261		1.511317	-0.008945
| 15> H	-1.683553		1.872433	0.772059
| 16> O	1.372659		1.372659	-0.015734
| 17> H	1.511317		0.406261	0.008945
| 18> H	1.872433		1.683553	-0.772059
| 19> *
| 20> 
| 21> %maxcore 5000
| 22> 
| 23> %pal
| 24> nprocs 24
| 25> end
| 26> 
| 27> 
| 28>                          ****END OF INPUT****
================================================================================

                       *****************************
                       * Geometry Optimization Run *
                       *****************************

Geometry optimization settings:
Update method            Update   .... BFGS
Choice of coordinates    CoordSys .... Z-matrix Internals
Initial Hessian          InHess   .... Almoef's Model

Convergence Tolerances:
Energy Change            TolE     ....  5.0000e-06 Eh
Max. Gradient            TolMAXG  ....  3.0000e-04 Eh/bohr
RMS Gradient             TolRMSG  ....  1.0000e-04 Eh/bohr
Max. Displacement        TolMAXD  ....  4.0000e-03 bohr
RMS Displacement         TolRMSD  ....  2.0000e-03 bohr
Strict Convergence                ....  False
------------------------------------------------------------------------------
                        ORCA OPTIMIZATION COORDINATE SETUP
------------------------------------------------------------------------------

The optimization will be done in new redundant internal coordinates
Making redundant internal coordinates   ...  (new redundants) done
Evaluating the initial hessian          ...  (Almloef) done
Evaluating the coordinates              ...  done
Calculating the B-matrix                .... done
Calculating the G-matrix                .... done
Diagonalizing the G-matrix              .... done
The first mode is                       ....   94
The number of degrees of freedom        ....   30

    -----------------------------------------------------------------
                    Redundant Internal Coordinates


    -----------------------------------------------------------------
         Definition                    Initial Value    Approx d2E/dq
    -----------------------------------------------------------------
      1. B(H   1,O   0)                  0.9766         0.489184   
      2. B(H   2,O   0)                  0.9584         0.523094   
      3. B(O   3,H   1)                  1.7843         0.025165   
      4. B(H   4,H   1)                  2.2133         0.001113   
      5. B(H   4,O   3)                  0.9766         0.489186   
      6. B(H   5,O   3)                  0.9584         0.523094   
      7. B(O   6,H   4)                  1.7843         0.025165   
      8. B(H   7,O   6)                  0.9766         0.489186   
      9. B(H   7,H   4)                  2.2133         0.001113   
     10. B(H   8,O   6)                  0.9584         0.523095   
     11. B(O   9,H   7)                  1.7843         0.025165   
     12. B(H  10,O   9)                  0.9766         0.489184   
     13. B(H  10,H   1)                  2.2133         0.001113   
     14. B(H  10,O   0)                  1.7843         0.025165   
     15. B(H  10,H   7)                  2.2133         0.001113   
     16. B(H  11,O   9)                  0.9584         0.523095   
     17. A(H   1,O   0,H  10)          102.6121         0.204712   
     18. A(H   2,O   0,H  10)          119.8481         0.206481   
     19. A(H   1,O   0,H   2)          105.4806         0.318954   
     20. A(O   0,H   1,O   3)          167.3198         0.204712   
     21. A(O   0,H   1,H  10)           51.8821         0.135215   
     22. A(O   0,H   1,H   4)          141.8365         0.135215   
     23. A(H   4,H   1,H  10)           89.9963         0.098430   
     24. A(O   3,H   1,H   4)           25.5058         0.112611   
     25. A(O   3,H   1,H  10)          115.4978         0.112611   
     26. A(H   1,O   3,H   4)          102.6121         0.204712   
     27. A(H   4,O   3,H   5)          105.4807         0.318954   
     28. A(H   1,O   3,H   5)          119.8481         0.206481   
     29. A(O   3,H   4,H   7)          141.8365         0.135215   
     30. A(O   6,H   4,H   7)           25.5058         0.112611   
     31. A(H   1,H   4,H   7)           89.9963         0.098430   
     32. A(H   1,H   4,O   6)          115.4978         0.112611   
     33. A(O   3,H   4,O   6)          167.3198         0.204712   
     34. A(H   1,H   4,O   3)           51.8821         0.135215   
     35. A(H   7,O   6,H   8)          105.4807         0.318954   
     36. A(H   4,O   6,H   8)          119.8480         0.206481   
     37. A(H   4,O   6,H   7)          102.6121         0.204712   
     38. A(H   4,H   7,O   9)          115.4978         0.112611   
     39. A(O   6,H   7,O   9)          167.3198         0.204712   
     40. A(H   4,H   7,O   6)           51.8821         0.135215   
     41. A(O   9,H   7,H  10)           25.5058         0.112611   
     42. A(H   4,H   7,H  10)           89.9962         0.098430   
     43. A(O   6,H   7,H  10)          141.8365         0.135215   
     44. A(H   7,O   9,H  11)          119.8480         0.206481   
     45. A(H   7,O   9,H  10)          102.6121         0.204712   
     46. A(H  10,O   9,H  11)          105.4807         0.318954   
     47. A(O   0,H  10,O   9)          167.3198         0.204712   
     48. A(O   0,H  10,H   1)           25.5058         0.112611   
     49. A(H   1,H  10,O   9)          141.8365         0.135215   
     50. A(H   1,H  10,H   7)           89.9962         0.098430   
     51. A(O   0,H  10,H   7)          115.4978         0.112611   
     52. A(H   7,H  10,O   9)           51.8821         0.135215   
     53. D(H  10,H   1,O   0,H   2)    126.2406         0.357621   
     54. D(O   3,H   1,O   0,H   2)    120.2411         0.357621   
     55. D(H   4,H   1,O   0,H   2)    123.0995         0.357621   
     56. D(O   3,H   1,O   0,H  10)     -5.9995         0.357621   
     57. D(H   4,H   1,O   0,H  10)     -3.1411         0.357621   
     58. D(H   4,O   3,H   1,O   0)      4.1036         0.001912   
     59. D(H   4,O   3,H   1,H  10)     -1.1235         0.001912   
     60. D(H   5,O   3,H   1,H   4)    116.3425         0.001912   
     61. D(H   5,O   3,H   1,O   0)    120.4460         0.001912   
     62. D(H   5,O   3,H   1,H  10)    115.2190         0.001912   
     63. D(O   6,H   4,H   1,O   3)   -178.5435         0.001515   
     64. D(O   3,H   4,H   1,H  10)    178.9859         0.001515   
     65. D(O   6,H   4,H   1,H  10)      0.4425         0.001515   
     66. D(O   6,H   4,H   1,O   0)      2.9132         0.001515   
     67. D(H   7,H   4,O   3,H   1)      3.1411         0.357624   
     68. D(O   6,H   4,O   3,H   1)      5.9995         0.357624   
     69. D(O   6,H   4,O   3,H   5)   -120.2411         0.357624   
     70. D(H   1,H   4,O   3,H   5)   -126.2406         0.357624   
     71. D(H   7,H   4,H   1,O   3)   -178.0597         0.001515   
     72. D(H   7,H   4,H   1,H  10)      0.9262         0.001515   
     73. D(H   7,H   4,O   3,H   5)   -123.0995         0.357624   
     74. D(O   3,H   4,H   1,O   0)   -178.5433         0.001515   
     75. D(H   7,H   4,H   1,O   0)      3.3970         0.001515   
     76. D(H   8,O   6,H   4,H   1)   -115.2189         0.001912   
     77. D(H   8,O   6,H   4,H   7)   -116.3425         0.001912   
     78. D(H   8,O   6,H   4,O   3)   -120.4460         0.001912   
     79. D(H   7,O   6,H   4,H   1)      1.1235         0.001912   
     80. D(H   7,O   6,H   4,O   3)     -4.1036         0.001912   
     81. D(O   6,H   7,H   4,O   3)    178.5433         0.001515   
     82. D(O   6,H   7,H   4,H   1)   -178.9859         0.001515   
     83. D(O   9,H   7,H   4,O   3)     -2.9132         0.001515   
     84. D(H  10,H   7,O   6,H   4)     -3.1411         0.357624   
     85. D(H  10,H   7,O   6,H   8)    123.0994         0.357624   
     86. D(O   9,H   7,O   6,H   8)    120.2410         0.357624   
     87. D(H   4,H   7,O   6,H   8)    126.2405         0.357624   
     88. D(H  10,H   7,H   4,O   6)    178.0597         0.001515   
     89. D(H  10,H   7,H   4,H   1)     -0.9262         0.001515   
     90. D(O   9,H   7,O   6,H   4)     -5.9995         0.357624   
     91. D(H  10,H   7,H   4,O   3)     -3.3970         0.001515   
     92. D(O   9,H   7,H   4,O   6)    178.5435         0.001515   
     93. D(O   9,H   7,H   4,H   1)     -0.4425         0.001515   
     94. D(H  11,O   9,H   7,H  10)    116.3424         0.001912   
     95. D(H  11,O   9,H   7,H   4)    115.2189         0.001912   
     96. D(H  11,O   9,H   7,O   6)    120.4460         0.001912   
     97. D(H  10,O   9,H   7,H   4)     -1.1235         0.001912   
     98. D(H  10,O   9,H   7,O   6)      4.1036         0.001912   
     99. D(O   0,H  10,H   7,O   6)      2.9132         0.001515   
    100. D(O   9,H  10,H   7,H   4)    178.9859         0.001515   
    101. D(O   9,H  10,H   7,O   6)   -178.5433         0.001515   
    102. D(H   7,H  10,H   1,O   3)     -0.4425         0.001515   
    103. D(H   7,H  10,H   1,O   0)   -178.9859         0.001515   
    104. D(O   0,H  10,H   1,H   4)    178.0597         0.001515   
    105. D(O   0,H  10,H   1,O   3)    178.5435         0.001515   
    106. D(O   9,H  10,H   1,H   4)     -3.3970         0.001515   
    107. D(O   9,H  10,H   1,O   3)     -2.9132         0.001515   
    108. D(O   9,H  10,H   1,O   0)    178.5433         0.001515   
    109. D(H   7,H  10,O   0,H   2)   -115.2189         0.001912   
    110. D(H   7,H  10,H   1,H   4)     -0.9262         0.001515   
    111. D(H   7,H  10,O   0,H   1)      1.1235         0.001912   
    112. D(H   1,H  10,O   0,H   2)   -116.3424         0.001912   
    113. D(O   9,H  10,O   0,H   2)   -120.4460         0.001912   
    114. D(O   0,H  10,H   7,H   4)      0.4425         0.001515   
    115. D(O   9,H  10,O   0,H   1)     -4.1036         0.001912   
    116. D(H   7,H  10,O   9,H  11)   -126.2405         0.357621   
    117. D(H   1,H  10,O   9,H  11)   -123.0994         0.357621   
    118. D(O   0,H  10,O   9,H   7)      5.9995         0.357621   
    119. D(O   0,H  10,O   9,H  11)   -120.2410         0.357621   
    120. D(H   1,H  10,H   7,O   9)   -178.0597         0.001515   
    121. D(H   1,H  10,H   7,H   4)      0.9262         0.001515   
    122. D(H   1,H  10,O   9,H   7)      3.1411         0.357621   
    123. D(H   1,H  10,H   7,O   6)      3.3970         0.001515   
    124. D(O   0,H  10,H   7,O   9)   -178.5435         0.001515   
    -----------------------------------------------------------------

Number of atoms                         .... 12
Number of degrees of freedom            .... 124

         *************************************************************
         *                GEOMETRY OPTIMIZATION CYCLE   1            *
         *************************************************************
---------------------------------
CARTESIAN COORDINATES (ANGSTROEM)
---------------------------------
  O      1.372659   -1.372658    0.015734
  H      0.406261   -1.511316   -0.008945
  H      1.683553   -1.872433    0.772059
  O     -1.372658   -1.372658   -0.015734
  H     -1.511316   -0.406261    0.008945
  H     -1.872433   -1.683553   -0.772059
  O     -1.372658    1.372659    0.015734
  H     -0.406261    1.511317   -0.008945
  H     -1.683553    1.872433    0.772059
  O      1.372659    1.372659   -0.015734
  H      1.511317    0.406261    0.008945
  H      1.872433    1.683553   -0.772059

----------------------------
CARTESIAN COORDINATES (A.U.)
----------------------------
  NO LB      ZA    FRAG     MASS         X           Y           Z
   0 O     8.0000    0    15.999    2.593950   -2.593948    0.029733
   1 H     1.0000    0     1.008    0.767722   -2.855973   -0.016904
   2 H     1.0000    0     1.008    3.181454   -3.538386    1.458980
   3 O     8.0000    0    15.999   -2.593948   -2.593948   -0.029733
   4 H     1.0000    0     1.008   -2.855973   -0.767722    0.016904
   5 H     1.0000    0     1.008   -3.538386   -3.181454   -1.458980
   6 O     8.0000    0    15.999   -2.593948    2.593950    0.029733
   7 H     1.0000    0     1.008   -0.767722    2.855975   -0.016904
   8 H     1.0000    0     1.008   -3.181454    3.538386    1.458980
   9 O     8.0000    0    15.999    2.593950    2.593950   -0.029733
  10 H     1.0000    0     1.008    2.855975    0.767722    0.016904
  11 H     1.0000    0     1.008    3.538386    3.181454   -1.458980

--------------------------------
INTERNAL COORDINATES (ANGSTROEM)
--------------------------------
 O      0   0   0     0.000000000000     0.00000000     0.00000000
 H      1   0   0     0.976606465476     0.00000000     0.00000000
 H      1   2   0     0.958361954319   105.48063347     0.00000000
 O      2   1   3     1.784327587649   167.31984179   120.24107791
 H      4   2   1     0.976605475929   102.61211353     4.10356285
 H      4   2   1     0.958362278721   119.84805779   120.44602620
 O      5   4   2     1.784328584618   167.31983583     5.99948704
 H      7   5   4     0.976605475929   102.61211104   355.89643243
 H      7   5   4     0.958361757233   119.84800790   239.55397543
 O      8   7   5     1.784328584618   167.31983583   354.00051315
 H     10   8   7     0.976606465476   102.61210273     4.10356916
 H     10   8   7     0.958361432831   119.84802438   120.44596220

---------------------------
INTERNAL COORDINATES (A.U.)
---------------------------
 O      0   0   0     0.000000000000     0.00000000     0.00000000
 H      1   0   0     1.845518760366     0.00000000     0.00000000
 H      1   2   0     1.811041630832   105.48063347     0.00000000
 O      2   1   3     3.371890473857   167.31984179   120.24107791
 H      4   2   1     1.845516890393   102.61211353     4.10356285
 H      4   2   1     1.811042243863   119.84805779   120.44602620
 O      5   4   2     3.371892357855   167.31983583     5.99948704
 H      7   5   4     1.845516890393   102.61211104   355.89643243
 H      7   5   4     1.811041258393   119.84800790   239.55397543
 O      8   7   5     3.371892357855   167.31983583   354.00051315
 H     10   8   7     1.845518760366   102.61210273     4.10356916
 H     10   8   7     1.811040645362   119.84802438   120.44596220

---------------------
BASIS SET INFORMATION
---------------------
There are 2 groups of distinct atoms

 Group   1 Type O   : 19s6p3d2f contracted to 5s4p3d2f pattern {88111/3111/111/11}
 Group   2 Type H   : 6s3p2d contracted to 4s3p2d pattern {3111/111/11}

Atom   0O    basis set group =>   1
Atom   1H    basis set group =>   2
Atom   2H    basis set group =>   2
Atom   3O    basis set group =>   1
Atom   4H    basis set group =>   2
Atom   5H    basis set group =>   2
Atom   6O    basis set group =>   1
Atom   7H    basis set group =>   2
Atom   8H    basis set group =>   2
Atom   9O    basis set group =>   1
Atom  10H    basis set group =>   2
Atom  11H    basis set group =>   2
----------------------------------
AUXILIARY/JK BASIS SET INFORMATION
----------------------------------
There are 2 groups of distinct atoms

 Group   1 Type O   : 14s10p6d2f1g contracted to 10s8p4d2f1g pattern {5111111111/31111111/3111/11/1}
 Group   2 Type H   : 4s2p2d contracted to 2s2p2d pattern {31/11/11}

Atom   0O    basis set group =>   1
Atom   1H    basis set group =>   2
Atom   2H    basis set group =>   2
Atom   3O    basis set group =>   1
Atom   4H    basis set group =>   2
Atom   5H    basis set group =>   2
Atom   6O    basis set group =>   1
Atom   7H    basis set group =>   2
Atom   8H    basis set group =>   2
Atom   9O    basis set group =>   1
Atom  10H    basis set group =>   2
Atom  11H    basis set group =>   2


           ************************************************************
           *        Program running with 24 parallel MPI-processes    *
           *              working on a common directory               *
           ************************************************************
------------------------------------------------------------------------------
                           ORCA GTO INTEGRAL CALCULATION
------------------------------------------------------------------------------

                         BASIS SET STATISTICS AND STARTUP INFO

 # of primitive gaussian shells          ...  208
 # of primitive gaussian functions       ...  464
 # of contracted shells                  ...  128
 # of contracted basis functions         ...  368
 Highest angular momentum                ...    3
 Maximum contraction depth               ...    8
 Integral package used                   ... LIBINT
 Integral threshhold            Thresh   ...  2.500e-11
 Primitive cut-off              TCut     ...  2.500e-12


------------------------------ INTEGRAL EVALUATION ----------------------------


 * One electron integrals 
 Pre-screening matrix                    ... done
 Shell pair data                         ... done (   0.002 sec)



           ************************************************************
           *        Program running with 24 parallel MPI-processes    *
           *              working on a common directory               *
           ************************************************************
-------------------------------------------------------------------------------
                                 ORCA SCF
-------------------------------------------------------------------------------

------------
SCF SETTINGS
------------
Hamiltonian:
 Density Functional     Method          .... DFT(GTOs)
 Exchange Functional    Exchange        .... TPSS
 Correlation Functional Correlation     .... TPSS
 LDA part of GGA corr.  LDAOpt          .... PW91-LDA
 Gradients option       PostSCFGGA      .... off
 Hybrid DFT is turned on
   Fraction HF Exchange ScalHFX         ....  0.100000
   Scaling of DF-GGA-X  ScalDFX         ....  0.900000
   Scaling of DF-GGA-C  ScalDFC         ....  1.000000
   Scaling of DF-LDA-C  ScalLDAC        ....  1.000000
   Perturbative correction              ....  0.000000
   Density functional embedding theory  .... OFF
   NL short-range parameter             ....  5.200000


General Settings:
 Integral files         IntName         .... 04_H2O_4
 Hartree-Fock type      HFTyp           .... RHF
 Total Charge           Charge          ....    0
 Multiplicity           Mult            ....    1
 Number of Electrons    NEL             ....   40
 Basis Dimension        Dim             ....  368
 Nuclear Repulsion      ENuc            ....    141.3596395251 Eh

Convergence Acceleration:
 DIIS                   CNVDIIS         .... on
   Start iteration      DIISMaxIt       ....    12
   Startup error        DIISStart       ....  0.200000
   # of expansion vecs  DIISMaxEq       ....     5
   Bias factor          DIISBfac        ....   1.050
   Max. coefficient     DIISMaxC        ....  10.000
 Newton-Raphson         CNVNR           .... off
 SOSCF                  CNVSOSCF        .... on
   Start iteration      SOSCFMaxIt      ....   150
   Startup grad/error   SOSCFStart      ....  0.003300
 Level Shifting         CNVShift        .... on
   Level shift para.    LevelShift      ....    0.2500
   Turn off err/grad.   ShiftErr        ....    0.0010
 Zerner damping         CNVZerner       .... off
 Static damping         CNVDamp         .... on
   Fraction old density DampFac         ....    0.7000
   Max. Damping (<1)    DampMax         ....    0.9800
   Min. Damping (>=0)   DampMin         ....    0.0000
   Turn off err/grad.   DampErr         ....    0.1000
 Fernandez-Rico         CNVRico         .... off

SCF Procedure:
 Maximum # iterations   MaxIter         ....   125
 SCF integral mode      SCFMode         .... Direct
   Integral package                     .... LIBINT
 Reset frequency        DirectResetFreq ....    20
 Integral Threshold     Thresh          ....  2.500e-11 Eh
 Primitive CutOff       TCut            ....  2.500e-12 Eh

Convergence Tolerance:
 Convergence Check Mode ConvCheckMode   .... Total+1el-Energy
 Convergence forced     ConvForced      .... 0
 Energy Change          TolE            ....  1.000e-08 Eh
 1-El. energy change                    ....  1.000e-05 Eh
 Orbital Gradient       TolG            ....  1.000e-05
 Orbital Rotation angle TolX            ....  1.000e-05
 DIIS Error             TolErr          ....  5.000e-07


Diagonalization of the overlap matrix:
Smallest eigenvalue                        ... 1.138e-04
Time for diagonalization                   ...    0.017 sec
Threshold for overlap eigenvalues          ... 1.000e-08
Number of eigenvalues below threshold      ... 0
Time for construction of square roots      ...    0.016 sec
Total time needed                          ...    0.034 sec

-------------------
DFT GRID GENERATION
-------------------

General Integration Accuracy     IntAcc      ...  4.670
Radial Grid Type                 RadialGrid  ... Gauss-Chebyshev
Angular Grid (max. acc.)         AngularGrid ... Lebedev-302
Angular grid pruning method      GridPruning ... 3 (G Style)
Weight generation scheme         WeightScheme... Becke
Basis function cutoff            BFCut       ...    1.0000e-11
Integration weight cutoff        WCut        ...    1.0000e-14
Grids for H and He will be reduced by one unit

# of grid points (after initial pruning)     ...  52000 (   0.0 sec)
# of grid points (after weights+screening)   ...  49024 (   0.0 sec)
nearest neighbour list constructed           ...    0.0 sec
Grid point re-assignment to atoms done       ...    0.0 sec
Grid point division into batches done        ...    0.1 sec
Reduced shell lists constructed in    0.2 sec

Total number of grid points                  ...    49024
Total number of batches                      ...      772
Average number of points per batch           ...       63
Average number of grid points per atom       ...     4085
Average number of shells per batch           ...    89.65 (70.04%)
Average number of basis functions per batch  ...   249.24 (67.73%)
Average number of large shells per batch     ...    73.50 (81.99%)
Average number of large basis fcns per batch ...   199.44 (80.02%)
Maximum spatial batch extension              ...  14.21, 10.44, 11.53 au
Average spatial batch extension              ...   0.12,  0.10,  0.12 au

Time for grid setup =    0.237 sec

------------------------------
INITIAL GUESS: MODEL POTENTIAL
------------------------------
Loading Hartree-Fock densities                     ... done
Calculating cut-offs                               ... done
Setting up the integral package                    ... done
Initializing the effective Hamiltonian             ... done
Starting the Coulomb interaction                   ... done (   0.0 sec)
Reading the grid                                   ... done
Mapping shells                                     ... done
Starting the XC term evaluation                    ... done (   0.1 sec)
  promolecular density results
     # of electrons  =     39.996233363
     EX              =    -34.966055015
     EC              =     -1.292478975
     EX+EC           =    -36.258533990
Transforming the Hamiltonian                       ... done (   0.0 sec)
Diagonalizing the Hamiltonian                      ... done (   0.0 sec)
Back transforming the eigenvectors                 ... done (   0.0 sec)
Now organizing SCF variables                       ... done
                      ------------------
                      INITIAL GUESS DONE (   0.4 sec)
                      ------------------
--------------
SCF ITERATIONS
--------------
ITER       Energy         Delta-E        Max-DP      RMS-DP      [F,P]     Damp
               ***  Starting incremental Fock matrix formation  ***
  0   -305.5731144684   0.000000000000 0.07563849  0.00108856  0.3177765 0.7000
  1   -305.7254802422  -0.152365773834 0.03675971  0.00062157  0.1244026 0.7000
                               ***Turning on DIIS***
  2   -305.7721836927  -0.046703450482 0.04760622  0.00076050  0.0281398 0.0000
  3   -305.8573163469  -0.085132654230 0.01554614  0.00032013  0.0713860 0.0000
  4   -305.8737671997  -0.016450852755 0.00301763  0.00007394  0.0129866 0.0000
                      *** Initiating the SOSCF procedure ***
                           *** Shutting down DIIS ***
                      *** Re-Reading the Fockian *** 
                      *** Removing any level shift *** 
ITER      Energy       Delta-E        Grad      Rot      Max-DP    RMS-DP
  5   -305.87455101  -0.0007838072  0.000856  0.000856  0.001566  0.000030
               *** Restarting incremental Fock matrix formation ***
  6   -305.87459618  -0.0000451712  0.000407  0.001122  0.001634  0.000034
  7   -305.87459786  -0.0000016772  0.000325  0.000166  0.000630  0.000012
  8   -305.87460205  -0.0000041940  0.000063  0.000162  0.000363  0.000007
  9   -305.87460223  -0.0000001829  0.000012  0.000031  0.000051  0.000001
                  ***Gradient check signals convergence***
              ***Rediagonalizing the Fockian in SOSCF/NRSCF***

               *****************************************************
               *                     SUCCESS                       *
               *           SCF CONVERGED AFTER  10 CYCLES          *
               *****************************************************


----------------
TOTAL SCF ENERGY
----------------

Total Energy       :         -305.87460224 Eh           -8323.27107 eV

Components:
Nuclear Repulsion  :          141.35963953 Eh            3846.59135 eV
Electronic Energy  :         -447.23424176 Eh          -12169.86242 eV
One Electron Energy:         -701.51914511 Eh          -19089.30642 eV
Two Electron Energy:          254.28490334 Eh            6919.44400 eV

Virial components:
Potential Energy   :         -610.30262195 Eh          -16607.17864 eV
Kinetic Energy     :          304.42801971 Eh            8283.90756 eV
Virial Ratio       :            2.00475180


DFT components:
N(Alpha)           :       20.000062276418 electrons
N(Beta)            :       20.000062276418 electrons
N(Total)           :       40.000124552835 electrons
E(X)               :      -32.461979866209 Eh       
E(C)               :       -1.329620275217 Eh       
E(XC)              :      -33.791600141426 Eh       
DFET-embed. en.    :        0.000000000000 Eh       

---------------
SCF CONVERGENCE
---------------

  Last Energy change         ...   -7.3152e-09  Tolerance :   1.0000e-08
  Last MAX-Density change    ...    4.2908e-06  Tolerance :   1.0000e-07
  Last RMS-Density change    ...    6.6212e-08  Tolerance :   5.0000e-09
  Last Orbital Gradient      ...    1.3780e-06  Tolerance :   1.0000e-05
  Last Orbital Rotation      ...    1.0820e-06  Tolerance :   1.0000e-05

             **** THE GBW FILE WAS UPDATED (04_H2O_4.gbw) ****
             **** DENSITY FILE WAS UPDATED (04_H2O_4.scfp) ****
             **** ENERGY FILE WAS UPDATED (04_H2O_4.en.tmp) ****
             **** THE GBW FILE WAS UPDATED (04_H2O_4.gbw) ****
             **** DENSITY FILE WAS UPDATED (04_H2O_4.scfp) ****
----------------
ORBITAL ENERGIES
----------------

  NO   OCC          E(Eh)            E(eV) 
   0   2.0000     -19.052998      -518.4584 
   1   2.0000     -19.052994      -518.4583 
   2   2.0000     -19.052994      -518.4583 
   3   2.0000     -19.052991      -518.4582 
   4   2.0000      -1.002331       -27.2748 
   5   2.0000      -0.989683       -26.9306 
   6   2.0000      -0.989683       -26.9306 
   7   2.0000      -0.977343       -26.5949 
   8   2.0000      -0.523776       -14.2527 
   9   2.0000      -0.511903       -13.9296 
  10   2.0000      -0.511903       -13.9296 
  11   2.0000      -0.503233       -13.6937 
  12   2.0000      -0.409348       -11.1389 
  13   2.0000      -0.376885       -10.2556 
  14   2.0000      -0.376885       -10.2556 
  15   2.0000      -0.344237        -9.3672 
  16   2.0000      -0.299661        -8.1542 
  17   2.0000      -0.296190        -8.0597 
  18   2.0000      -0.296190        -8.0597 
  19   2.0000      -0.295560        -8.0426 
  20   0.0000      -0.023268        -0.6332 
  21   0.0000       0.002204         0.0600 
  22   0.0000       0.002204         0.0600 
  23   0.0000       0.013243         0.3604 
  24   0.0000       0.041403         1.1266 
  25   0.0000       0.052231         1.4213 
  26   0.0000       0.052231         1.4213 
  27   0.0000       0.053406         1.4533 
  28   0.0000       0.066714         1.8154 
  29   0.0000       0.090905         2.4736 
  30   0.0000       0.093647         2.5483 
  31   0.0000       0.093647         2.5483 
  32   0.0000       0.106378         2.8947 
  33   0.0000       0.118978         3.2376 
  34   0.0000       0.122258         3.3268 
  35   0.0000       0.122258         3.3268 
  36   0.0000       0.143955         3.9172 
  37   0.0000       0.151016         4.1094 
  38   0.0000       0.151017         4.1094 
  39   0.0000       0.163560         4.4507 
  40   0.0000       0.163664         4.4535 
  41   0.0000       0.174992         4.7618 
  42   0.0000       0.175851         4.7851 
  43   0.0000       0.175851         4.7852 
  44   0.0000       0.182846         4.9755 
  45   0.0000       0.207185         5.6378 
  46   0.0000       0.207185         5.6378 
  47   0.0000       0.208729         5.6798 
  48   0.0000       0.232201         6.3185 
  49   0.0000       0.252639         6.8746 
  50   0.0000       0.264993         7.2108 
  51   0.0000       0.264994         7.2108 
  52   0.0000       0.276812         7.5324 
  53   0.0000       0.286447         7.7946 
  54   0.0000       0.291713         7.9379 
  55   0.0000       0.291713         7.9379 
  56   0.0000       0.296595         8.0708 
  57   0.0000       0.322953         8.7880 
  58   0.0000       0.327962         8.9243 
  59   0.0000       0.327962         8.9243 
  60   0.0000       0.331622         9.0239 
  61   0.0000       0.344634         9.3780 
  62   0.0000       0.345115         9.3911 
  63   0.0000       0.359348         9.7784 
  64   0.0000       0.359349         9.7784 
  65   0.0000       0.371458        10.1079 
  66   0.0000       0.373173        10.1546 
  67   0.0000       0.373173        10.1546 
  68   0.0000       0.390080        10.6146 
  69   0.0000       0.390080        10.6146 
  70   0.0000       0.397160        10.8073 
  71   0.0000       0.402388        10.9495 
  72   0.0000       0.450741        12.2653 
  73   0.0000       0.464333        12.6351 
  74   0.0000       0.464333        12.6352 
  75   0.0000       0.476464        12.9653 
  76   0.0000       0.483485        13.1563 
  77   0.0000       0.531250        14.4561 
  78   0.0000       0.534342        14.5402 
  79   0.0000       0.534343        14.5402 
  80   0.0000       0.548443        14.9239 
  81   0.0000       0.565090        15.3769 
  82   0.0000       0.620666        16.8892 
  83   0.0000       0.620667        16.8892 
  84   0.0000       0.631772        17.1914 
  85   0.0000       0.658573        17.9207 
  86   0.0000       0.668174        18.1819 
  87   0.0000       0.668174        18.1819 
  88   0.0000       0.669933        18.2298 
  89   0.0000       0.688334        18.7305 
  90   0.0000       0.688335        18.7305 
  91   0.0000       0.690801        18.7977 
  92   0.0000       0.707202        19.2440 
  93   0.0000       0.718457        19.5502 
  94   0.0000       0.730373        19.8745 
  95   0.0000       0.730374        19.8745 
  96   0.0000       0.748440        20.3661 
  97   0.0000       0.756697        20.5908 
  98   0.0000       0.756697        20.5908 
  99   0.0000       0.804157        21.8822 
 100   0.0000       0.813860        22.1463 
 101   0.0000       0.813860        22.1463 
 102   0.0000       0.822567        22.3832 
 103   0.0000       0.825109        22.4524 
 104   0.0000       0.828203        22.5365 
 105   0.0000       0.828203        22.5365 
 106   0.0000       0.832225        22.6460 
 107   0.0000       0.851808        23.1789 
 108   0.0000       0.851808        23.1789 
 109   0.0000       0.854648        23.2562 
 110   0.0000       0.862181        23.4611 
 111   0.0000       0.880559        23.9612 
 112   0.0000       0.892065        24.2743 
 113   0.0000       0.903623        24.5888 
 114   0.0000       0.911329        24.7985 
 115   0.0000       0.911329        24.7985 
 116   0.0000       0.914751        24.8916 
 117   0.0000       0.926826        25.2202 
 118   0.0000       0.985777        26.8243 
 119   0.0000       0.985777        26.8244 
 120   0.0000       1.002234        27.2722 
 121   0.0000       1.032777        28.1033 
 122   0.0000       1.032778        28.1033 
 123   0.0000       1.037228        28.2244 
 124   0.0000       1.050014        28.5723 
 125   0.0000       1.054708        28.7001 
 126   0.0000       1.070939        29.1417 
 127   0.0000       1.070940        29.1418 
 128   0.0000       1.086973        29.5780 
 129   0.0000       1.088577        29.6217 
 130   0.0000       1.088577        29.6217 
 131   0.0000       1.128180        30.6993 
 132   0.0000       1.135728        30.9047 
 133   0.0000       1.146202        31.1898 
 134   0.0000       1.155049        31.4305 
 135   0.0000       1.155049        31.4305 
 136   0.0000       1.156991        31.4833 
 137   0.0000       1.199873        32.6502 
 138   0.0000       1.199873        32.6502 
 139   0.0000       1.204366        32.7725 
 140   0.0000       1.226039        33.3622 
 141   0.0000       1.226191        33.3663 
 142   0.0000       1.226191        33.3663 
 143   0.0000       1.270708        34.5777 
 144   0.0000       1.298723        35.3401 
 145   0.0000       1.310661        35.6649 
 146   0.0000       1.342747        36.5380 
 147   0.0000       1.342748        36.5380 
 148   0.0000       1.364512        37.1303 
 149   0.0000       1.364512        37.1303 
 150   0.0000       1.372757        37.3546 
 151   0.0000       1.385538        37.7024 
 152   0.0000       1.456506        39.6335 
 153   0.0000       1.465527        39.8790 
 154   0.0000       1.465528        39.8790 
 155   0.0000       1.467169        39.9237 
 156   0.0000       1.485475        40.4218 
 157   0.0000       1.516086        41.2548 
 158   0.0000       1.530114        41.6365 
 159   0.0000       1.559912        42.4474 
 160   0.0000       1.559912        42.4474 
 161   0.0000       1.586491        43.1706 
 162   0.0000       1.593308        43.3561 
 163   0.0000       1.597972        43.4830 
 164   0.0000       1.597972        43.4830 
 165   0.0000       1.632244        44.4156 
 166   0.0000       1.636635        44.5351 
 167   0.0000       1.636635        44.5351 
 168   0.0000       1.660177        45.1757 
 169   0.0000       1.776281        48.3351 
 170   0.0000       1.776281        48.3351 
 171   0.0000       1.778689        48.4006 
 172   0.0000       1.811503        49.2935 
 173   0.0000       1.815710        49.4080 
 174   0.0000       1.815710        49.4080 
 175   0.0000       1.826313        49.6965 
 176   0.0000       1.851700        50.3873 
 177   0.0000       1.931359        52.5549 
 178   0.0000       1.931359        52.5550 
 179   0.0000       2.006448        54.5982 
 180   0.0000       2.022835        55.0441 
 181   0.0000       2.128486        57.9191 
 182   0.0000       2.128487        57.9191 
 183   0.0000       2.131931        58.0128 
 184   0.0000       2.148337        58.4592 
 185   0.0000       2.156975        58.6943 
 186   0.0000       2.156975        58.6943 
 187   0.0000       2.185693        59.4757 
 188   0.0000       2.215486        60.2864 
 189   0.0000       2.215486        60.2864 
 190   0.0000       2.215690        60.2920 
 191   0.0000       2.236890        60.8689 
 192   0.0000       2.285584        62.1939 
 193   0.0000       2.288952        62.2856 
 194   0.0000       2.288952        62.2856 
 195   0.0000       2.298605        62.5482 
 196   0.0000       2.305179        62.7271 
 197   0.0000       2.324016        63.2397 
 198   0.0000       2.324016        63.2397 
 199   0.0000       2.342473        63.7419 
 200   0.0000       2.377629        64.6986 
 201   0.0000       2.407462        65.5104 
 202   0.0000       2.407462        65.5104 
 203   0.0000       2.410011        65.5797 
 204   0.0000       2.474566        67.3364 
 205   0.0000       2.500707        68.0477 
 206   0.0000       2.523490        68.6676 
 207   0.0000       2.523490        68.6677 
 208   0.0000       2.544267        69.2330 
 209   0.0000       2.581256        70.2396 
 210   0.0000       2.581256        70.2396 
 211   0.0000       2.588634        70.4403 
 212   0.0000       2.639818        71.8331 
 213   0.0000       2.640915        71.8629 
 214   0.0000       2.655870        72.2699 
 215   0.0000       2.656025        72.2741 
 216   0.0000       2.656025        72.2741 
 217   0.0000       2.673313        72.7446 
 218   0.0000       2.690290        73.2065 
 219   0.0000       2.742153        74.6178 
 220   0.0000       2.742153        74.6178 
 221   0.0000       2.801538        76.2337 
 222   0.0000       2.813993        76.5726 
 223   0.0000       2.813993        76.5726 
 224   0.0000       2.828419        76.9652 
 225   0.0000       2.846639        77.4610 
 226   0.0000       2.880760        78.3895 
 227   0.0000       2.880760        78.3895 
 228   0.0000       2.943258        80.0901 
 229   0.0000       2.961078        80.5750 
 230   0.0000       2.961078        80.5750 
 231   0.0000       2.983519        81.1857 
 232   0.0000       3.605852        98.1202 
 233   0.0000       3.636378        98.9509 
 234   0.0000       3.636379        98.9509 
 235   0.0000       3.659211        99.5722 
 236   0.0000       3.777775       102.7985 
 237   0.0000       3.845932       104.6531 
 238   0.0000       3.845932       104.6531 
 239   0.0000       3.886276       105.7509 
 240   0.0000       3.891928       105.9047 
 241   0.0000       3.891928       105.9047 
 242   0.0000       3.904540       106.2479 
 243   0.0000       3.926603       106.8483 
 244   0.0000       3.986443       108.4766 
 245   0.0000       3.986443       108.4766 
 246   0.0000       3.992807       108.6498 
 247   0.0000       4.014760       109.2472 
 248   0.0000       4.024717       109.5181 
 249   0.0000       4.024717       109.5181 
 250   0.0000       4.031266       109.6963 
 251   0.0000       4.053713       110.3071 
 252   0.0000       4.069869       110.7468 
 253   0.0000       4.088002       111.2402 
 254   0.0000       4.088002       111.2402 
 255   0.0000       4.164512       113.3221 
 256   0.0000       4.183946       113.8509 
 257   0.0000       4.196163       114.1834 
 258   0.0000       4.260195       115.9258 
 259   0.0000       4.260195       115.9258 
 260   0.0000       4.271523       116.2340 
 261   0.0000       4.293324       116.8273 
 262   0.0000       4.293324       116.8273 
 263   0.0000       4.309123       117.2572 
 264   0.0000       4.323009       117.6351 
 265   0.0000       4.339861       118.0936 
 266   0.0000       4.339861       118.0936 
 267   0.0000       4.352875       118.4478 
 268   0.0000       4.388023       119.4042 
 269   0.0000       4.426645       120.4551 
 270   0.0000       4.431254       120.5805 
 271   0.0000       4.432709       120.6201 
 272   0.0000       4.432709       120.6201 
 273   0.0000       4.471629       121.6792 
 274   0.0000       4.471629       121.6792 
 275   0.0000       4.488252       122.1315 
 276   0.0000       4.600361       125.1822 
 277   0.0000       4.600361       125.1822 
 278   0.0000       4.667400       127.0064 
 279   0.0000       4.700925       127.9187 
 280   0.0000       4.736539       128.8878 
 281   0.0000       4.764961       129.6612 
 282   0.0000       4.771967       129.8518 
 283   0.0000       4.771967       129.8518 
 284   0.0000       4.865822       132.4057 
 285   0.0000       4.873064       132.6028 
 286   0.0000       4.892646       133.1357 
 287   0.0000       4.892646       133.1357 
 288   0.0000       4.985470       135.6615 
 289   0.0000       4.996837       135.9709 
 290   0.0000       5.007471       136.2602 
 291   0.0000       5.007471       136.2602 
 292   0.0000       5.045381       137.2918 
 293   0.0000       5.045381       137.2918 
 294   0.0000       5.074463       138.0832 
 295   0.0000       5.074770       138.0915 
 296   0.0000       5.094785       138.6361 
 297   0.0000       5.190682       141.2457 
 298   0.0000       5.190683       141.2457 
 299   0.0000       5.245102       142.7265 
 300   0.0000       5.259122       143.1080 
 301   0.0000       5.372285       146.1873 
 302   0.0000       5.372285       146.1873 
 303   0.0000       5.435921       147.9189 
 304   0.0000       5.537217       150.6753 
 305   0.0000       5.537217       150.6753 
 306   0.0000       5.575843       151.7264 
 307   0.0000       5.581208       151.8724 
 308   0.0000       6.015614       163.6932 
 309   0.0000       6.031275       164.1193 
 310   0.0000       6.033243       164.1729 
 311   0.0000       6.033243       164.1729 
 312   0.0000       6.163462       167.7163 
 313   0.0000       6.199586       168.6993 
 314   0.0000       6.199586       168.6993 
 315   0.0000       6.229911       169.5245 
 316   0.0000       6.472545       176.1269 
 317   0.0000       6.506332       177.0463 
 318   0.0000       6.511049       177.1747 
 319   0.0000       6.511049       177.1747 
 320   0.0000       6.591632       179.3674 
 321   0.0000       6.624972       180.2746 
 322   0.0000       6.624972       180.2746 
 323   0.0000       6.638980       180.6558 
 324   0.0000       6.797086       184.9581 
 325   0.0000       6.828428       185.8110 
 326   0.0000       6.828428       185.8110 
 327   0.0000       6.833756       185.9559 
 328   0.0000       6.863875       186.7755 
 329   0.0000       6.883149       187.3000 
 330   0.0000       6.914733       188.1595 
 331   0.0000       6.914733       188.1595 
 332   0.0000       6.945279       188.9906 
 333   0.0000       6.978824       189.9034 
 334   0.0000       6.978824       189.9034 
 335   0.0000       6.989749       190.2007 
 336   0.0000       6.998856       190.4486 
 337   0.0000       7.014770       190.8816 
 338   0.0000       7.022386       191.0888 
 339   0.0000       7.022386       191.0888 
 340   0.0000       7.062136       192.1705 
 341   0.0000       7.083182       192.7432 
 342   0.0000       7.083182       192.7432 
 343   0.0000       7.086458       192.8323 
 344   0.0000       7.133870       194.1225 
 345   0.0000       7.149100       194.5369 
 346   0.0000       7.149100       194.5369 
 347   0.0000       7.219650       196.4567 
 348   0.0000       7.398979       201.3364 
 349   0.0000       7.497179       204.0086 
 350   0.0000       7.537516       205.1062 
 351   0.0000       7.537516       205.1062 
 352   0.0000       7.627970       207.5676 
 353   0.0000       7.643767       207.9975 
 354   0.0000       7.643767       207.9975 
 355   0.0000       7.658470       208.3976 
 356   0.0000       7.695876       209.4154 
 357   0.0000       7.701218       209.5608 
 358   0.0000       7.701218       209.5608 
 359   0.0000       7.821250       212.8270 
 360   0.0000       8.555220       232.7994 
 361   0.0000       8.572652       233.2737 
 362   0.0000       8.572652       233.2737 
 363   0.0000       8.633953       234.9418 
 364   0.0000      15.527025       422.5118 
 365   0.0000      16.471433       448.2105 
 366   0.0000      16.471433       448.2105 
 367   0.0000      17.046240       463.8518 

                    ********************************
                    * MULLIKEN POPULATION ANALYSIS *
                    ********************************

-----------------------
MULLIKEN ATOMIC CHARGES
-----------------------
   0 O :   -0.398529
   1 H :    0.283207
   2 H :    0.115322
   3 O :   -0.398529
   4 H :    0.283207
   5 H :    0.115322
   6 O :   -0.398527
   7 H :    0.283205
   8 H :    0.115322
   9 O :   -0.398528
  10 H :    0.283207
  11 H :    0.115321
Sum of atomic charges:    0.0000000

--------------------------------
MULLIKEN REDUCED ORBITAL CHARGES
--------------------------------
  0 O s       :     3.960996  s :     3.960996
      pz      :     1.458932  p :     4.427847
      px      :     1.322296
      py      :     1.646619
      dz2     :     0.001068  d :     0.009694
      dxz     :     0.000710
      dyz     :     0.001173
      dx2y2   :     0.005126
      dxy     :     0.001617
      f0      :     0.000023  f :    -0.000009
      f+1     :    -0.000130
      f-1     :     0.000114
      f+2     :     0.000101
      f-2     :     0.000013
      f+3     :    -0.000054
      f-3     :    -0.000076
  1 H s       :     0.613891  s :     0.613891
      pz      :     0.043512  p :     0.056700
      px      :    -0.036679
      py      :     0.049867
      dz2     :     0.000369  d :     0.046202
      dxz     :     0.018620
      dyz     :     0.000006
      dx2y2   :     0.002234
      dxy     :     0.024973
  2 H s       :     0.751000  s :     0.751000
      pz      :     0.026981  p :     0.115038
      px      :     0.038273
      py      :     0.049784
      dz2     :     0.007776  d :     0.018640
      dxz     :     0.001975
      dyz     :     0.002413
      dx2y2   :     0.004311
      dxy     :     0.002165
  3 O s       :     3.960998  s :     3.960998
      pz      :     1.458932  p :     4.427846
      px      :     1.646619
      py      :     1.322295
      dz2     :     0.001068  d :     0.009694
      dxz     :     0.001173
      dyz     :     0.000710
      dx2y2   :     0.005126
      dxy     :     0.001617
      f0      :     0.000023  f :    -0.000009
      f+1     :     0.000114
      f-1     :    -0.000130
      f+2     :     0.000101
      f-2     :     0.000013
      f+3     :    -0.000076
      f-3     :    -0.000054
  4 H s       :     0.613891  s :     0.613891
      pz      :     0.043512  p :     0.056700
      px      :     0.049867
      py      :    -0.036680
      dz2     :     0.000369  d :     0.046202
      dxz     :     0.000006
      dyz     :     0.018620
      dx2y2   :     0.002234
      dxy     :     0.024973
  5 H s       :     0.751000  s :     0.751000
      pz      :     0.026981  p :     0.115038
      px      :     0.049784
      py      :     0.038273
      dz2     :     0.007776  d :     0.018640
      dxz     :     0.002413
      dyz     :     0.001975
      dx2y2   :     0.004311
      dxy     :     0.002165
  6 O s       :     3.960995  s :     3.960995
      pz      :     1.458932  p :     4.427847
      px      :     1.322295
      py      :     1.646620
      dz2     :     0.001068  d :     0.009694
      dxz     :     0.000710
      dyz     :     0.001173
      dx2y2   :     0.005126
      dxy     :     0.001617
      f0      :     0.000023  f :    -0.000009
      f+1     :    -0.000130
      f-1     :     0.000114
      f+2     :     0.000101
      f-2     :     0.000013
      f+3     :    -0.000054
      f-3     :    -0.000076
  7 H s       :     0.613892  s :     0.613892
      pz      :     0.043512  p :     0.056701
      px      :    -0.036679
      py      :     0.049867
      dz2     :     0.000369  d :     0.046202
      dxz     :     0.018620
      dyz     :     0.000006
      dx2y2   :     0.002235
      dxy     :     0.024973
  8 H s       :     0.751001  s :     0.751001
      pz      :     0.026981  p :     0.115038
      px      :     0.038273
      py      :     0.049784
      dz2     :     0.007776  d :     0.018640
      dxz     :     0.001975
      dyz     :     0.002413
      dx2y2   :     0.004311
      dxy     :     0.002165
  9 O s       :     3.960996  s :     3.960996
      pz      :     1.458931  p :     4.427847
      px      :     1.646620
      py      :     1.322296
      dz2     :     0.001068  d :     0.009694
      dxz     :     0.001173
      dyz     :     0.000710
      dx2y2   :     0.005126
      dxy     :     0.001617
      f0      :     0.000023  f :    -0.000009
      f+1     :     0.000114
      f-1     :    -0.000130
      f+2     :     0.000101
      f-2     :     0.000013
      f+3     :    -0.000076
      f-3     :    -0.000054
 10 H s       :     0.613891  s :     0.613891
      pz      :     0.043512  p :     0.056700
      px      :     0.049867
      py      :    -0.036678
      dz2     :     0.000369  d :     0.046202
      dxz     :     0.000006
      dyz     :     0.018620
      dx2y2   :     0.002234
      dxy     :     0.024973
 11 H s       :     0.751001  s :     0.751001
      pz      :     0.026980  p :     0.115038
      px      :     0.049785
      py      :     0.038273
      dz2     :     0.007776  d :     0.018640
      dxz     :     0.002413
      dyz     :     0.001975
      dx2y2   :     0.004311
      dxy     :     0.002165


                     *******************************
                     * LOEWDIN POPULATION ANALYSIS *
                     *******************************

----------------------
LOEWDIN ATOMIC CHARGES
----------------------
   0 O :    1.120140
   1 H :   -0.660147
   2 H :   -0.459994
   3 O :    1.120141
   4 H :   -0.660148
   5 H :   -0.459993
   6 O :    1.120141
   7 H :   -0.660148
   8 H :   -0.459994
   9 O :    1.120141
  10 H :   -0.660146
  11 H :   -0.459995

-------------------------------
LOEWDIN REDUCED ORBITAL CHARGES
-------------------------------
  0 O s       :     2.955091  s :     2.955091
      pz      :     1.283236  p :     3.804655
      px      :     1.216529
      py      :     1.304891
      dz2     :     0.020758  d :     0.101194
      dxz     :     0.010318
      dyz     :     0.018721
      dx2y2   :     0.041654
      dxy     :     0.009743
      f0      :     0.000341  f :     0.018920
      f+1     :     0.003241
      f-1     :     0.005175
      f+2     :     0.001108
      f-2     :     0.002117
      f+3     :     0.004267
      f-3     :     0.002671
  1 H s       :     0.544066  s :     0.544066
      pz      :     0.140258  p :     0.619315
      px      :     0.337201
      py      :     0.141856
      dz2     :     0.049408  d :     0.496766
      dxz     :     0.152832
      dyz     :     0.001556
      dx2y2   :     0.150783
      dxy     :     0.142187
  2 H s       :     0.583615  s :     0.583615
      pz      :     0.221770  p :     0.533642
      px      :     0.136616
      py      :     0.175256
      dz2     :     0.104505  d :     0.342737
      dxz     :     0.073418
      dyz     :     0.082264
      dx2y2   :     0.047494
      dxy     :     0.035056
  3 O s       :     2.955090  s :     2.955090
      pz      :     1.283236  p :     3.804655
      px      :     1.304890
      py      :     1.216529
      dz2     :     0.020758  d :     0.101194
      dxz     :     0.018721
      dyz     :     0.010318
      dx2y2   :     0.041654
      dxy     :     0.009743
      f0      :     0.000341  f :     0.018920
      f+1     :     0.005175
      f-1     :     0.003241
      f+2     :     0.001108
      f-2     :     0.002117
      f+3     :     0.002671
      f-3     :     0.004267
  4 H s       :     0.544066  s :     0.544066
      pz      :     0.140259  p :     0.619316
      px      :     0.141856
      py      :     0.337201
      dz2     :     0.049408  d :     0.496766
      dxz     :     0.001556
      dyz     :     0.152832
      dx2y2   :     0.150783
      dxy     :     0.142187
  5 H s       :     0.583615  s :     0.583615
      pz      :     0.221769  p :     0.533641
      px      :     0.175256
      py      :     0.136616
      dz2     :     0.104505  d :     0.342737
      dxz     :     0.082264
      dyz     :     0.073418
      dx2y2   :     0.047494
      dxy     :     0.035056
  6 O s       :     2.955090  s :     2.955090
      pz      :     1.283235  p :     3.804655
      px      :     1.216529
      py      :     1.304891
      dz2     :     0.020758  d :     0.101194
      dxz     :     0.010318
      dyz     :     0.018721
      dx2y2   :     0.041654
      dxy     :     0.009743
      f0      :     0.000341  f :     0.018920
      f+1     :     0.003241
      f-1     :     0.005175
      f+2     :     0.001108
      f-2     :     0.002117
      f+3     :     0.004267
      f-3     :     0.002671
  7 H s       :     0.544066  s :     0.544066
      pz      :     0.140259  p :     0.619316
      px      :     0.337201
      py      :     0.141856
      dz2     :     0.049408  d :     0.496766
      dxz     :     0.152832
      dyz     :     0.001556
      dx2y2   :     0.150783
      dxy     :     0.142187
  8 H s       :     0.583615  s :     0.583615
      pz      :     0.221770  p :     0.533642
      px      :     0.136616
      py      :     0.175256
      dz2     :     0.104505  d :     0.342737
      dxz     :     0.073418
      dyz     :     0.082264
      dx2y2   :     0.047494
      dxy     :     0.035056
  9 O s       :     2.955091  s :     2.955091
      pz      :     1.283236  p :     3.804655
      px      :     1.304891
      py      :     1.216529
      dz2     :     0.020758  d :     0.101194
      dxz     :     0.018721
      dyz     :     0.010318
      dx2y2   :     0.041654
      dxy     :     0.009743
      f0      :     0.000341  f :     0.018920
      f+1     :     0.005175
      f-1     :     0.003241
      f+2     :     0.001108
      f-2     :     0.002117
      f+3     :     0.002671
      f-3     :     0.004267
 10 H s       :     0.544066  s :     0.544066
      pz      :     0.140258  p :     0.619315
      px      :     0.141856
      py      :     0.337201
      dz2     :     0.049408  d :     0.496766
      dxz     :     0.001556
      dyz     :     0.152832
      dx2y2   :     0.150783
      dxy     :     0.142187
 11 H s       :     0.583615  s :     0.583615
      pz      :     0.221770  p :     0.533642
      px      :     0.175256
      py      :     0.136616
      dz2     :     0.104505  d :     0.342737
      dxz     :     0.082264
      dyz     :     0.073418
      dx2y2   :     0.047494
      dxy     :     0.035056


                      *****************************
                      * MAYER POPULATION ANALYSIS *
                      *****************************

  NA   - Mulliken gross atomic population
  ZA   - Total nuclear charge
  QA   - Mulliken gross atomic charge
  VA   - Mayer's total valence
  BVA  - Mayer's bonded valence
  FA   - Mayer's free valence

  ATOM       NA         ZA         QA         VA         BVA        FA
  0 O      8.3985     8.0000    -0.3985     1.9017     1.9017     0.0000
  1 H      0.7168     1.0000     0.2832     0.9438     0.9438     0.0000
  2 H      0.8847     1.0000     0.1153     1.1191     1.1191     0.0000
  3 O      8.3985     8.0000    -0.3985     1.9017     1.9017     0.0000
  4 H      0.7168     1.0000     0.2832     0.9438     0.9438    -0.0000
  5 H      0.8847     1.0000     0.1153     1.1191     1.1191     0.0000
  6 O      8.3985     8.0000    -0.3985     1.9017     1.9017     0.0000
  7 H      0.7168     1.0000     0.2832     0.9438     0.9438    -0.0000
  8 H      0.8847     1.0000     0.1153     1.1191     1.1191     0.0000
  9 O      8.3985     8.0000    -0.3985     1.9017     1.9017     0.0000
 10 H      0.7168     1.0000     0.2832     0.9438     0.9438    -0.0000
 11 H      0.8847     1.0000     0.1153     1.1191     1.1191    -0.0000

  Mayer bond orders larger than 0.100000
B(  0-O ,  1-H ) :   0.8364 B(  0-O ,  2-H ) :   1.0763 B(  3-O ,  4-H ) :   0.8364 
B(  3-O ,  5-H ) :   1.0763 B(  6-O ,  7-H ) :   0.8364 B(  6-O ,  8-H ) :   1.0763 
B(  9-O , 10-H ) :   0.8364 B(  9-O , 11-H ) :   1.0763 

-------
TIMINGS
-------

Total SCF time: 0 days 0 hours 0 min 23 sec 

Total time                  ....      23.959 sec
Sum of individual times     ....      23.622 sec  ( 98.6%)

Fock matrix formation       ....      22.869 sec  ( 95.4%)
  XC integration            ....       1.753 sec  (  7.7% of F)
    Basis function eval.    ....       0.169 sec  (  9.6% of XC)
    Density eval.           ....       0.380 sec  ( 21.7% of XC)
    XC-Functional eval.     ....       0.046 sec  (  2.6% of XC)
    XC-Potential eval.      ....       0.844 sec  ( 48.2% of XC)
Diagonalization             ....       0.136 sec  (  0.6%)
Density matrix formation    ....       0.019 sec  (  0.1%)
Population analysis         ....       0.022 sec  (  0.1%)
Initial guess               ....       0.192 sec  (  0.8%)
Orbital Transformation      ....       0.000 sec  (  0.0%)
Orbital Orthonormalization  ....       0.000 sec  (  0.0%)
DIIS solution               ....       0.057 sec  (  0.2%)
SOSCF solution              ....       0.090 sec  (  0.4%)
Grid generation             ....       0.237 sec  (  1.0%)


-------------------------------------------------------------------------------
                          DFT DISPERSION CORRECTION                            
                                                                               
                              DFTD3 V3.1  Rev 1                                
                          USING Becke-Johnson damping                          
-------------------------------------------------------------------------------
The TPSSH functional is recognized
Active option DFTDOPT                   ...         4   

molecular C6(AA) [au] = 712.183247 


            DFT-D V3
 parameters
 s6 scaling factor         :     1.0000 
 a1 scaling factor         :     0.4529 
 s8 scaling factor         :     2.2382 
 a2 scaling factor         :     4.6550 
 ad hoc parameters k1-k3   :    16.0000     1.3333    -4.0000 

 Edisp/kcal,au: -3.399653542166  -0.005417692194 
 E6   /kcal   :  -1.853026397 
 E8   /kcal   :  -1.546627145 
 % E8         :  45.493669460 

-------------------------   ----------------
Dispersion correction           -0.005417692
-------------------------   ----------------


-------------------------   --------------------
FINAL SINGLE POINT ENERGY      -305.880019931765
-------------------------   --------------------



           ************************************************************
           *        Program running with 24 parallel MPI-processes    *
           *              working on a common directory               *
           ************************************************************
------------------------------------------------------------------------------
                         ORCA SCF GRADIENT CALCULATION
------------------------------------------------------------------------------

Gradient of the Kohn-Sham DFT energy:
Kohn-Sham wavefunction type      ... RKS
Hartree-Fock exchange scaling    ...    0.100
Number of operators              ...    1
Number of atoms                  ...   12
Basis set dimensions             ...  368
Integral neglect threshold       ... 2.5e-11
Integral primitive cutoff        ... 2.5e-12

Nuclear repulsion gradient       ... done
One Electron Gradient            ... done
Pre-screening matrix             ... done
Starting the two electron gradient:
Two electron gradient done
Exchange-correlation gradient    ... done
Dispersion correction            ... done

------------------
CARTESIAN GRADIENT
------------------

   1   O   :   -0.006333892   -0.003631245    0.003669104
   2   H   :    0.008823853    0.000283423    0.000848434
   3   H   :   -0.002124076    0.001952408   -0.003657966
   4   O   :   -0.003631238    0.006334887   -0.003668847
   5   H   :    0.000283586   -0.008824660   -0.000848393
   6   H   :    0.001952231    0.002123907    0.003657683
   7   O   :    0.006334729    0.003631514    0.003669269
   8   H   :   -0.008824654   -0.000283591    0.000848389
   9   H   :    0.002124063   -0.001952523   -0.003658100
  10   O   :    0.003631524   -0.006333727   -0.003669515
  11   H   :   -0.000283431    0.008823843   -0.000848433
  12   H   :   -0.001952689   -0.002124253    0.003658376

Difference to translation invariance:
           :    0.0000000060   -0.0000000173    0.0000000017

Norm of the cartesian gradient     ...    0.0258569839
RMS gradient                       ...    0.0043094973
MAX gradient                       ...    0.0088246599

-------
TIMINGS
-------

Total SCF gradient time            ...       10.672 sec

One electron gradient       ....       0.026 sec  (  0.2%)
Prescreening matrices       ....       0.079 sec  (  0.7%)
Two electron gradient       ....       9.363 sec  ( 87.7%)
XC gradient                 ....       0.842 sec  (  7.9%)
------------------------------------------------------------------------------
                         ORCA GEOMETRY RELAXATION STEP
------------------------------------------------------------------------------

Reading the OPT-File                    .... done
Getting information on internals        .... done
Copying old internal coords+grads       .... done
Making the new internal coordinates     .... (new redundants).... done
Validating the new internal coordinates .... (new redundants).... done
Calculating the B-matrix                .... done
Calculating the G,G- and P matrices     .... done
Transforming gradient to internals      .... done
Projecting the internal gradient        .... done
Number of atoms                         ....  12
Number of internal coordinates          .... 124
Current Energy                          ....  -305.880019932 Eh
Current gradient norm                   ....     0.025856984 Eh/bohr
Maximum allowed component of the step   ....  0.300
Current trust radius                    ....  0.300
Evaluating the initial hessian          ....  (Almloef) done
Projecting the Hessian                  .... done
Forming the augmented Hessian           .... done
Diagonalizing the augmented Hessian     .... done
Last element of RFO vector              ....  0.997232538
Lowest eigenvalues of augmented Hessian:
 -0.000772285  0.015221311  0.015564995  0.031690554  0.032219016
Length of the computed step             ....  0.074551904
The final length of the internal step   ....  0.074551904
Converting the step to cartesian space:
 Initial RMS(Int)=    0.0066949586
Transforming coordinates:
 Iter   0:  RMS(Cart)=    0.0073053300 RMS(Int)=    0.0066945375
 Iter   1:  RMS(Cart)=    0.0000152572 RMS(Int)=    0.0000239485
 Iter   2:  RMS(Cart)=    0.0000002128 RMS(Int)=    0.0000001722
 Iter   3:  RMS(Cart)=    0.0000000011 RMS(Int)=    0.0000000034
done
Storing new coordinates                 .... done

                                .--------------------.
          ----------------------|Geometry convergence|-------------------------
          Item                value                   Tolerance       Converged
          ---------------------------------------------------------------------
          RMS gradient        0.0015624910            0.0001000000      NO
          MAX gradient        0.0064598900            0.0003000000      NO
          RMS step            0.0066949586            0.0020000000      NO
          MAX step            0.0253474471            0.0040000000      NO
          ........................................................
          Max(Bonds)      0.0134      Max(Angles)    0.35
          Max(Dihed)        0.20      Max(Improp)    0.00
          ---------------------------------------------------------------------

The optimization has not yet converged - more geometry cycles are needed


    ---------------------------------------------------------------------------
                         Redundant Internal Coordinates
                            (Angstroem and degrees)

        Definition                    Value    dE/dq     Step     New-Value
    ----------------------------------------------------------------------------
     1. B(H   1,O   0)                0.9766 -0.006459  0.0082    0.9848   
     2. B(H   2,O   0)                0.9584 -0.004614  0.0047    0.9630   
     3. B(O   3,H   1)                1.7843  0.001492 -0.0134    1.7709   
     4. B(H   4,H   1)                2.2133 -0.001125 -0.0086    2.2047   
     5. B(H   4,O   3)                0.9766 -0.006460  0.0082    0.9848   
     6. B(H   5,O   3)                0.9584 -0.004613  0.0047    0.9630   
     7. B(O   6,H   4)                1.7843  0.001492 -0.0134    1.7709   
     8. B(H   7,O   6)                0.9766 -0.006460  0.0082    0.9848   
     9. B(H   7,H   4)                2.2133 -0.001125 -0.0086    2.2047   
    10. B(H   8,O   6)                0.9584 -0.004614  0.0047    0.9630   
    11. B(O   9,H   7)                1.7843  0.001492 -0.0134    1.7709   
    12. B(H  10,O   9)                0.9766 -0.006459  0.0082    0.9848   
    13. B(H  10,H   1)                2.2133 -0.001125 -0.0086    2.2047   
    14. B(H  10,O   0)                1.7843  0.001491 -0.0134    1.7709   
    15. B(H  10,H   7)                2.2133 -0.001125 -0.0086    2.2047   
    16. B(H  11,O   9)                0.9584 -0.004614  0.0047    0.9630   
    17. A(H   1,O   0,H  10)          102.61  0.001044   -0.11    102.50   
    18. A(H   2,O   0,H  10)          119.85  0.000027   -0.05    119.80   
    19. A(H   1,O   0,H   2)          105.48 -0.000660    0.16    105.64   
    20. A(O   0,H   1,O   3)          167.32 -0.001050    0.12    167.43   
    21. A(O   0,H   1,H  10)           51.88  0.000609   -0.23     51.65   
    22. A(O   0,H   1,H   4)          141.84  0.000603   -0.23    141.61   
    23. A(H   4,H   1,H  10)           90.00 -0.000000   -0.00     90.00   
    24. A(O   3,H   1,H   4)           25.51 -0.001653    0.35     25.85   
    25. A(O   3,H   1,H  10)          115.50 -0.001654    0.35    115.85   
    26. A(H   1,O   3,H   4)          102.61  0.001044   -0.11    102.50   
    27. A(H   4,O   3,H   5)          105.48 -0.000660    0.16    105.64   
    28. A(H   1,O   3,H   5)          119.85  0.000027   -0.05    119.80   
    29. A(O   3,H   4,H   7)          141.84  0.000603   -0.23    141.61   
    30. A(O   6,H   4,H   7)           25.51 -0.001653    0.35     25.85   
    31. A(H   1,H   4,H   7)           90.00 -0.000000   -0.00     90.00   
    32. A(H   1,H   4,O   6)          115.50 -0.001654    0.35    115.84   
    33. A(O   3,H   4,O   6)          167.32 -0.001049    0.12    167.43   
    34. A(H   1,H   4,O   3)           51.88  0.000609   -0.23     51.65   
    35. A(H   7,O   6,H   8)          105.48 -0.000660    0.16    105.64   
    36. A(H   4,O   6,H   8)          119.85  0.000027   -0.05    119.80   
    37. A(H   4,O   6,H   7)          102.61  0.001044   -0.11    102.50   
    38. A(H   4,H   7,O   9)          115.50 -0.001654    0.35    115.84   
    39. A(O   6,H   7,O   9)          167.32 -0.001049    0.12    167.43   
    40. A(H   4,H   7,O   6)           51.88  0.000609   -0.23     51.65   
    41. A(O   9,H   7,H  10)           25.51 -0.001653    0.35     25.85   
    42. A(H   4,H   7,H  10)           90.00 -0.000000   -0.00     90.00   
    43. A(O   6,H   7,H  10)          141.84  0.000603   -0.23    141.61   
    44. A(H   7,O   9,H  11)          119.85  0.000027   -0.05    119.80   
    45. A(H   7,O   9,H  10)          102.61  0.001044   -0.11    102.50   
    46. A(H  10,O   9,H  11)          105.48 -0.000660    0.16    105.64   
    47. A(O   0,H  10,O   9)          167.32 -0.001049    0.12    167.43   
    48. A(O   0,H  10,H   1)           25.51 -0.001653    0.35     25.85   
    49. A(H   1,H  10,O   9)          141.84  0.000603   -0.23    141.61   
    50. A(H   1,H  10,H   7)           90.00 -0.000000   -0.00     90.00   
    51. A(O   0,H  10,H   7)          115.50 -0.001654    0.35    115.84   
    52. A(H   7,H  10,O   9)           51.88  0.000609   -0.23     51.65   
    53. D(H  10,H   1,O   0,H   2)    126.24  0.000243   -0.04    126.20   
    54. D(O   3,H   1,O   0,H   2)    120.24  0.000229   -0.05    120.19   
    55. D(H   4,H   1,O   0,H   2)    123.10  0.000021    0.05    123.15   
    56. D(O   3,H   1,O   0,H  10)     -6.00 -0.000014   -0.01     -6.01   
    57. D(H   4,H   1,O   0,H  10)     -3.14 -0.000223    0.09     -3.05   
    58. D(H   4,O   3,H   1,O   0)      4.10 -0.000105    0.11      4.21   
    59. D(H   4,O   3,H   1,H  10)     -1.12 -0.000090    0.10     -1.02   
    60. D(H   5,O   3,H   1,H   4)    116.34 -0.000040    0.09    116.43   
    61. D(H   5,O   3,H   1,O   0)    120.45 -0.000146    0.20    120.65   
    62. D(H   5,O   3,H   1,H  10)    115.22 -0.000130    0.20    115.41   
    63. D(O   6,H   4,H   1,O   3)   -178.54  0.000102   -0.01   -178.55   
    64. D(O   3,H   4,H   1,H  10)    178.99 -0.000095    0.10    179.08   
    65. D(O   6,H   4,H   1,H  10)      0.44  0.000007    0.09      0.53   
    66. D(O   6,H   4,H   1,O   0)      2.91  0.000203    0.01      2.92   
    67. D(H   7,H   4,O   3,H   1)      3.14  0.000223   -0.09      3.05   
    68. D(O   6,H   4,O   3,H   1)      6.00  0.000014    0.01      6.01   
    69. D(O   6,H   4,O   3,H   5)   -120.24 -0.000229    0.05   -120.19   
    70. D(H   1,H   4,O   3,H   5)   -126.24 -0.000243    0.04   -126.20   
    71. D(H   7,H   4,H   1,O   3)   -178.06  0.000111   -0.04   -178.10   
    72. D(H   7,H   4,H   1,H  10)      0.93  0.000017    0.05      0.98   
    73. D(H   7,H   4,O   3,H   5)   -123.10 -0.000021   -0.05   -123.15   
    74. D(O   3,H   4,H   1,O   0)   -178.54  0.000101    0.02   -178.53   
    75. D(H   7,H   4,H   1,O   0)      3.40  0.000212   -0.03      3.37   
    76. D(H   8,O   6,H   4,H   1)   -115.22  0.000130   -0.20   -115.41   
    77. D(H   8,O   6,H   4,H   7)   -116.34  0.000040   -0.09   -116.43   
    78. D(H   8,O   6,H   4,O   3)   -120.45  0.000146   -0.20   -120.65   
    79. D(H   7,O   6,H   4,H   1)      1.12  0.000090   -0.10      1.02   
    80. D(H   7,O   6,H   4,O   3)     -4.10  0.000105   -0.11     -4.21   
    81. D(O   6,H   7,H   4,O   3)    178.54 -0.000101   -0.02    178.53   
    82. D(O   6,H   7,H   4,H   1)   -178.99  0.000095   -0.10   -179.08   
    83. D(O   9,H   7,H   4,O   3)     -2.91 -0.000203   -0.01     -2.92   
    84. D(H  10,H   7,O   6,H   4)     -3.14 -0.000223    0.09     -3.05   
    85. D(H  10,H   7,O   6,H   8)    123.10  0.000021    0.05    123.15   
    86. D(O   9,H   7,O   6,H   8)    120.24  0.000229   -0.05    120.19   
    87. D(H   4,H   7,O   6,H   8)    126.24  0.000243   -0.04    126.20   
    88. D(H  10,H   7,H   4,O   6)    178.06 -0.000111    0.04    178.10   
    89. D(H  10,H   7,H   4,H   1)     -0.93 -0.000017   -0.05     -0.98   
    90. D(O   9,H   7,O   6,H   4)     -6.00 -0.000014   -0.01     -6.01   
    91. D(H  10,H   7,H   4,O   3)     -3.40 -0.000212    0.03     -3.37   
    92. D(O   9,H   7,H   4,O   6)    178.54 -0.000102    0.01    178.55   
    93. D(O   9,H   7,H   4,H   1)     -0.44 -0.000007   -0.09     -0.53   
    94. D(H  11,O   9,H   7,H  10)    116.34 -0.000040    0.09    116.43   
    95. D(H  11,O   9,H   7,H   4)    115.22 -0.000130    0.20    115.41   
    96. D(H  11,O   9,H   7,O   6)    120.45 -0.000146    0.20    120.65   
    97. D(H  10,O   9,H   7,H   4)     -1.12 -0.000090    0.10     -1.02   
    98. D(H  10,O   9,H   7,O   6)      4.10 -0.000105    0.11      4.21   
    99. D(O   0,H  10,H   7,O   6)      2.91  0.000203    0.01      2.92   
   100. D(O   9,H  10,H   7,H   4)    178.99 -0.000095    0.10    179.08   
   101. D(O   9,H  10,H   7,O   6)   -178.54  0.000101    0.02   -178.53   
   102. D(H   7,H  10,H   1,O   3)     -0.44 -0.000007   -0.09     -0.53   
   103. D(H   7,H  10,H   1,O   0)   -178.99  0.000095   -0.10   -179.08   
   104. D(O   0,H  10,H   1,H   4)    178.06 -0.000111    0.04    178.10   
   105. D(O   0,H  10,H   1,O   3)    178.54 -0.000102    0.01    178.55   
   106. D(O   9,H  10,H   1,H   4)     -3.40 -0.000212    0.03     -3.37   
   107. D(O   9,H  10,H   1,O   3)     -2.91 -0.000203   -0.01     -2.92   
   108. D(O   9,H  10,H   1,O   0)    178.54 -0.000101   -0.02    178.53   
   109. D(H   7,H  10,O   0,H   2)   -115.22  0.000130   -0.20   -115.41   
   110. D(H   7,H  10,H   1,H   4)     -0.93 -0.000017   -0.05     -0.98   
   111. D(H   7,H  10,O   0,H   1)      1.12  0.000090   -0.10      1.02   
   112. D(H   1,H  10,O   0,H   2)   -116.34  0.000040   -0.09   -116.43   
   113. D(O   9,H  10,O   0,H   2)   -120.45  0.000146   -0.20   -120.65   
   114. D(O   0,H  10,H   7,H   4)      0.44  0.000007    0.09      0.53   
   115. D(O   9,H  10,O   0,H   1)     -4.10  0.000105   -0.11     -4.21   
[...]
     13       0.192912  -0.040770  -0.017162  -0.001891   0.010083   0.042448
     14       0.055973  -0.198705   0.037090   0.158881   0.305321   0.100254
     15       0.031181  -0.320050  -0.299849  -0.396405   0.039720  -0.211392
     16       0.237303  -0.234642  -0.071561   0.080437   0.330329   0.309170
     17      -0.179594   0.342876   0.279879   0.241709  -0.191598  -0.017066
     18      -0.191685   0.002838  -0.025635  -0.006371  -0.022535   0.008241
     19      -0.186737   0.065010  -0.012447  -0.032665  -0.002463  -0.003643
     20       0.007849  -0.032317   0.018835   0.037167  -0.026350  -0.005235
     21      -0.193019   0.017022  -0.040650  -0.001916   0.010067  -0.042444
     22      -0.219935  -0.048187   0.012927   0.009872  -0.090200   0.312149
     23       0.056098   0.037095   0.198591  -0.158909  -0.305265   0.100286
     24      -0.237716   0.071405  -0.234416   0.080401   0.330195  -0.309213
     25       0.032063  -0.299642   0.320275   0.396370  -0.039924  -0.211265
     26      -0.180506   0.279697  -0.342895  -0.241702   0.191672  -0.017178
     27       0.186820   0.012565   0.064890  -0.032664  -0.002461   0.003645
     28      -0.191596  -0.025794  -0.002826   0.006367   0.022539   0.008240
     29       0.007873   0.018823   0.032284  -0.037188   0.026345  -0.005233
     30       0.219899  -0.012787  -0.048262   0.009946  -0.090296  -0.312158
     31      -0.192920  -0.040814  -0.017008   0.001923  -0.010077  -0.042443
     32       0.055665   0.198661  -0.037062   0.158893   0.305268   0.100221
     33      -0.031831  -0.320139  -0.299456   0.396608  -0.039850   0.211260
     34      -0.237317  -0.234614  -0.071384  -0.080319  -0.330254  -0.309154
     35      -0.180207  -0.342913  -0.279493   0.241905  -0.191657  -0.017151
                 18         19         20         21         22         23    
      0      -0.023687   0.022840  -0.010044  -0.012357  -0.016858   0.019998
      1       0.004787   0.021712  -0.019539  -0.004202   0.015719  -0.006855
      2       0.030741   0.014183  -0.024676  -0.020460   0.008492  -0.006352
      3      -0.000374  -0.026019  -0.029871  -0.021430   0.035313  -0.022493
      4      -0.135846   0.207238   0.308092   0.132178  -0.539887   0.397532
      5       0.038677  -0.350365   0.346147   0.168729  -0.367046   0.259225
      6       0.120912  -0.444503   0.097059  -0.001215   0.054728  -0.115290
      7      -0.048110  -0.296484   0.147853   0.112059   0.071656  -0.102250
      8      -0.088564   0.022756   0.045524   0.064017   0.011887  -0.002602
      9       0.021713  -0.004792   0.019536  -0.015721  -0.004202  -0.006855
     10      -0.022843  -0.023687  -0.010048  -0.016856   0.012357  -0.019997
     11      -0.014191   0.030745  -0.024674   0.008496   0.020458   0.006354
     12       0.207263   0.135948  -0.308002   0.539911   0.132155   0.397555
     13       0.026016  -0.000360  -0.029867   0.035314   0.021427   0.022493
     14       0.350325   0.038678   0.346064  -0.367106  -0.168730  -0.259256
     15      -0.296569   0.048161  -0.147851  -0.071608   0.112041  -0.102246
     16       0.444470   0.120995   0.097055   0.054701   0.001207   0.115290
     17      -0.022683  -0.088648   0.045522   0.011867  -0.064000   0.002603
     18      -0.023678   0.022840   0.010045  -0.012357  -0.016854  -0.019998
     19       0.004794   0.021715   0.019538  -0.004206   0.015721   0.006855
     20      -0.030738  -0.014192  -0.024671   0.020463  -0.008496  -0.006352
     21      -0.000363  -0.026038   0.029863  -0.021432   0.035315   0.022492
     22      -0.135911   0.207366  -0.307985   0.132203  -0.539908  -0.397545
     23      -0.038594   0.350401   0.346062  -0.168772   0.367094   0.259251
     24       0.120894  -0.444615  -0.097065  -0.001195   0.054698   0.115291
     25      -0.048134  -0.296654  -0.147851   0.112070   0.071611   0.102253
     26       0.088577  -0.022693   0.045521  -0.064013  -0.011873  -0.002606
     27       0.021714  -0.004783  -0.019538  -0.015718  -0.004206   0.006856
     28      -0.022850  -0.023682   0.010043  -0.016858   0.012357   0.019998
     29       0.014187  -0.030741  -0.024673  -0.008493  -0.020462   0.006352
     30       0.207358   0.135809   0.308043   0.539870   0.132208  -0.397561
     31       0.026030  -0.000379   0.029867   0.035311   0.021430  -0.022494
     32      -0.350448  -0.038629   0.346104   0.367053   0.168785  -0.259250
     33      -0.296622   0.048201   0.147843  -0.071639   0.112069   0.102256
     34       0.444648   0.120849  -0.097066   0.054713   0.001187  -0.115291
     35       0.022737   0.088593   0.045513  -0.011884   0.064008   0.002607
                 24         25         26         27         28         29    
      0       0.016211  -0.019048   0.005264  -0.009722   0.031062  -0.040588
      1       0.019251  -0.026689   0.011744  -0.021811   0.003676  -0.006678
      2      -0.024973   0.029846  -0.006724   0.018486  -0.003546   0.004306
      3       0.048410  -0.073060   0.021041  -0.062739  -0.491663   0.667822
      4      -0.232563   0.328737  -0.138440   0.285439  -0.067696   0.080979
      5       0.313469  -0.404057   0.122446  -0.278442   0.024810  -0.026919
      6      -0.281502   0.372412  -0.134142   0.269493   0.025326  -0.037822
      7      -0.088447   0.124423  -0.050934   0.090401  -0.025401   0.031570
      8       0.082884  -0.104700   0.031691  -0.072728   0.028016  -0.039420
      9      -0.019252  -0.011737  -0.026688  -0.021816   0.003676   0.002025
     10       0.016211   0.005259   0.019047   0.009725  -0.031063  -0.012478
     11      -0.024971  -0.006715  -0.029846  -0.018491   0.003546   0.000395
     12       0.232566   0.138355   0.328730   0.285494  -0.067696  -0.021873
     13       0.048408   0.021024   0.073056   0.062750   0.491673   0.200607
     14       0.313458   0.122337   0.404043   0.278507  -0.024810  -0.007423
     15       0.088452   0.050904   0.124417   0.090423  -0.025400   0.003942
     16      -0.281503  -0.134038  -0.372401  -0.269560  -0.025326  -0.009116
     17       0.082881   0.031657   0.104700   0.072750  -0.028015  -0.001914
     18      -0.016217  -0.019043   0.005256   0.009725  -0.031063  -0.040587
     19      -0.019262  -0.026684   0.011732   0.021816  -0.003676  -0.006678
     20      -0.024982  -0.029839   0.006710   0.018490  -0.003546  -0.004306
     21      -0.048435  -0.073044   0.021009   0.062750   0.491675   0.667819
     22       0.232687   0.328665  -0.138295  -0.285499   0.067696   0.080978
     23       0.313606   0.403960  -0.122261  -0.278501   0.024810   0.026919
     24       0.281640   0.372327  -0.133971  -0.269554  -0.025326  -0.037821
     25       0.088499   0.124395  -0.050880  -0.090420   0.025401   0.031573
     26       0.082918   0.104677  -0.031642  -0.072745   0.028015   0.039421
     27       0.019261  -0.011739  -0.026685   0.021812  -0.003675   0.002025
     28      -0.016218   0.005261   0.019043  -0.009722   0.031063  -0.012479
     29      -0.024982   0.006718   0.029839  -0.018486   0.003546  -0.000395
     30      -0.232672   0.138382   0.328683  -0.285447   0.067697  -0.021875
     31      -0.048434   0.021028   0.073048  -0.062739  -0.491668   0.200621
     32       0.313604  -0.122370  -0.403966   0.278446  -0.024810   0.007423
     33      -0.088495   0.050911   0.124400  -0.090401   0.025400   0.003940
     34       0.281630  -0.134073  -0.372338   0.269501   0.025326  -0.009118
     35       0.082918  -0.031671  -0.104679   0.072732  -0.028014   0.001915
                 30         31         32         33         34         35    
      0      -0.012478   0.029594   0.014846   0.021218  -0.000445  -0.015109
      1      -0.002025   0.004803  -0.016315  -0.023068  -0.000675   0.016525
      2       0.000395  -0.002724   0.021923   0.030962   0.000658  -0.021897
      3       0.200613  -0.493870  -0.028372  -0.043734   0.013770   0.032140
      4       0.021874  -0.055840  -0.012910  -0.019081   0.000321   0.013283
      5      -0.007422   0.017143   0.014808   0.019709   0.001668  -0.013083
      6      -0.009117   0.029069  -0.205257  -0.290166  -0.006968   0.205474
      7      -0.003940  -0.015906   0.272797   0.384945   0.007514  -0.272395
      8      -0.001915   0.026095  -0.362772  -0.512068  -0.010597   0.362353
      9      -0.006678  -0.004803   0.016312  -0.000674   0.023059   0.016540
     10       0.040587   0.029594   0.014844   0.000447   0.021210   0.015121
     11      -0.004306  -0.002724   0.021920  -0.000656   0.030950   0.021917
     12       0.080979   0.055838   0.012910   0.000322   0.019075   0.013294
     13      -0.667820  -0.493866  -0.028376  -0.013774  -0.043717  -0.032153
     14       0.026918   0.017143   0.014806  -0.001668   0.019702   0.013097
     15       0.031570   0.015904  -0.272756   0.007490  -0.384804  -0.272636
     16       0.037821   0.029067  -0.205226   0.006949  -0.290059  -0.205657
     17       0.039420   0.026093  -0.362718   0.010565  -0.511881  -0.362674
     18      -0.012478  -0.029593  -0.014836   0.021235  -0.000446   0.015095
     19      -0.002025  -0.004803   0.016303  -0.023086  -0.000674  -0.016512
     20      -0.000395  -0.002724   0.021908  -0.030986  -0.000657  -0.021879
     21       0.200614   0.493863   0.028368  -0.043766   0.013773  -0.032099
     22       0.021875   0.055838   0.012900  -0.019096   0.000319  -0.013271
     23       0.007423   0.017143   0.014797  -0.019724  -0.001670  -0.013074
     24      -0.009117  -0.029067   0.205110  -0.290393  -0.006961  -0.205300
     25      -0.003941   0.015905  -0.272603   0.385246   0.007505   0.272164
     26       0.001914   0.026094  -0.362514   0.512469   0.010583   0.362045
     27      -0.006678   0.004803  -0.016288  -0.000676   0.023094  -0.016514
     28       0.040587  -0.029593  -0.014822   0.000445   0.021243  -0.015098
     29       0.004306  -0.002724   0.021888   0.000659  -0.030997   0.021882
     30       0.080981  -0.055838  -0.012889   0.000320   0.019102  -0.013274
     31      -0.667821   0.493863   0.028326  -0.013768  -0.043782   0.032114
     32      -0.026919   0.017143   0.014787   0.001669  -0.019731   0.013075
     33       0.031571  -0.015906   0.272354   0.007529  -0.385387   0.272213
     34       0.037823  -0.029067   0.204924   0.006978  -0.290499   0.205337
     35      -0.039421   0.026094  -0.362184  -0.010616   0.512656  -0.362108


-----------
IR SPECTRUM  
-----------

 Mode    freq (cm**-1)   T**2         TX         TY         TZ
-------------------------------------------------------------------
   6:        51.23    0.000001  ( -0.000025  -0.000608  -0.000561)
   7:        94.33    3.162020  (  0.000492  -0.000265  -1.778207)
   8:       224.64    0.000004  (  0.000013   0.000992   0.001801)
   9:       254.73   49.041190  (  0.001393  -0.002093   7.002941)
  10:       267.47   16.224051  ( -1.193951   3.846886   0.000550)
  11:       267.49   16.268951  ( -3.854462  -1.188307  -0.000613)
  12:       283.18    4.973081  ( -0.011048   0.006329  -2.230004)
  13:       288.04  233.828919  ( -4.230502 -14.694617  -0.001165)
  14:       288.05  233.765219  (-14.692630   4.229874   0.002712)
  15:       330.47    0.000018  (  0.004113  -0.001176  -0.000269)
  16:       441.97    0.000001  ( -0.000027  -0.000394   0.000909)
  17:       469.75    9.079993  (  0.000809  -0.000148   3.013303)
  18:       490.49   43.199404  (  1.396165   6.422626   0.000256)
  19:       490.49   43.188489  ( -6.421619   1.396888   0.000729)
  20:       810.62  174.740128  ( -0.000096   0.000993  13.218931)
  21:       886.67  142.029564  (  7.626137   9.158143  -0.001084)
  22:       886.67  142.030884  (  9.157969  -7.626434   0.001123)
  23:      1055.59    0.000000  (  0.000066  -0.000209  -0.000198)
  24:      1654.05   81.517551  ( -0.000286   0.001637   9.028707)
  25:      1673.03   51.366206  (  5.573591   4.505695  -0.001025)
  26:      1673.04   51.366552  (  4.505758  -5.573571   0.001933)
  27:      1706.71    0.000001  (  0.000181  -0.000789   0.000068)
  28:      3182.36    0.000000  (  0.000333   0.000202  -0.000000)
  29:      3308.51  1739.195241  ( 39.981720  11.859903   0.000030)
  30:      3308.51  1739.192096  ( 11.859795 -39.981713   0.000032)
  31:      3355.65    0.282031  ( -0.000232  -0.000085  -0.531066)
  32:      3824.92   49.727774  ( -0.003948  -0.003204  -7.051790)
  33:      3827.46   80.625122  ( -8.002369   4.072740   0.001769)
  34:      3827.46   80.625034  ( -4.072722  -8.002372   0.003641)
  35:      3829.39    0.000035  (  0.000210  -0.005659  -0.001806)

The first frequency considered to be a vibration is 6
The total number of vibrations considered is 30


--------------------------
THERMOCHEMISTRY AT 298.15K
--------------------------

Temperature         ... 298.15 K
Pressure            ... 1.00 atm
Total Mass          ... 72.06 AMU

Throughout the following assumptions are being made:
  (1) The electronic state is orbitally nondegenerate
  (2) There are no thermally accessible electronically excited states
  (3) Hindered rotations indicated by low frequency modes are not
      treated as such but are treated as vibrations and this may
      cause some error
  (4) All equations used are the standard statistical mechanics
      equations for an ideal gas
  (5) All vibrations are strictly harmonic

freq.      51.23  E(vib)   ...       0.52 
freq.      94.33  E(vib)   ...       0.47 
freq.     224.64  E(vib)   ...       0.33 
freq.     254.73  E(vib)   ...       0.30 
freq.     267.47  E(vib)   ...       0.29 
freq.     267.49  E(vib)   ...       0.29 
freq.     283.18  E(vib)   ...       0.28 
freq.     288.04  E(vib)   ...       0.27 
freq.     288.05  E(vib)   ...       0.27 
freq.     330.47  E(vib)   ...       0.24 
freq.     441.97  E(vib)   ...       0.17 
freq.     469.75  E(vib)   ...       0.16 
freq.     490.49  E(vib)   ...       0.15 
freq.     490.49  E(vib)   ...       0.15 
freq.     810.62  E(vib)   ...       0.05 
freq.     886.67  E(vib)   ...       0.04 
freq.     886.67  E(vib)   ...       0.04 
freq.    1055.59  E(vib)   ...       0.02 
freq.    1654.05  E(vib)   ...       0.00 
freq.    1673.03  E(vib)   ...       0.00 
freq.    1673.04  E(vib)   ...       0.00 
freq.    1706.71  E(vib)   ...       0.00 
freq.    3182.36  E(vib)   ...       0.00 
freq.    3308.51  E(vib)   ...       0.00 
freq.    3308.51  E(vib)   ...       0.00 
freq.    3355.65  E(vib)   ...       0.00 
freq.    3824.92  E(vib)   ...       0.00 
freq.    3827.46  E(vib)   ...       0.00 
freq.    3827.46  E(vib)   ...       0.00 
freq.    3829.39  E(vib)   ...       0.00 

------------
INNER ENERGY
------------

The inner energy is: U= E(el) + E(ZPE) + E(vib) + E(rot) + E(trans)
    E(el)   - is the total energy from the electronic structure calculation
              = E(kin-el) + E(nuc-el) + E(el-el) + E(nuc-nuc)
    E(ZPE)  - the the zero temperature vibrational energy from the frequency calculation
    E(vib)  - the the finite temperature correction to E(ZPE) due to population
              of excited vibrational states
    E(rot)  - is the rotational thermal energy
    E(trans)- is the translational thermal energy

Summary of contributions to the inner energy U:
Electronic energy                ...   -305.88065346 Eh
Zero point energy                ...      0.09808186 Eh      61.55 kcal/mol
Thermal vibrational correction   ...      0.00641027 Eh       4.02 kcal/mol
Thermal rotational correction    ...      0.00141627 Eh       0.89 kcal/mol
Thermal translational correction ...      0.00141627 Eh       0.89 kcal/mol
-----------------------------------------------------------------------
Total thermal energy                   -305.77332878 Eh


Summary of corrections to the electronic energy:
(perhaps to be used in another calculation)
Total thermal correction                  0.00924281 Eh       5.80 kcal/mol
Non-thermal (ZPE) correction              0.09808186 Eh      61.55 kcal/mol
-----------------------------------------------------------------------
Total correction                          0.10732468 Eh      67.35 kcal/mol


--------
ENTHALPY
--------

The enthalpy is H = U + kB*T
                kB is Boltzmann's constant
Total free energy                 ...   -305.77332878 Eh 
Thermal Enthalpy correction       ...      0.00094421 Eh       0.59 kcal/mol
-----------------------------------------------------------------------
Total Enthalpy                    ...   -305.77238457 Eh


Note: Only C1 symmetry has been detected, increase convergence thresholds 
      if your molecule has a higher symmetry. Symmetry factor of 1.0 is   
      used for the rotational entropy correction. 
 

Note: Rotational entropy computed according to Herzberg 
Infrared and Raman Spectra, Chapter V,1, Van Nostrand Reinhold, 1945 
Point Group:  C1, Symmetry Number:   1  
Rotational constants in cm-1:     0.123901     0.123901     0.063095 

Vibrational entropy computed according to the QRRHO of S. Grimme
Chem.Eur.J. 2012 18 9955


-------
ENTROPY
-------

The entropy contributions are T*S = T*(S(el)+S(vib)+S(rot)+S(trans))
     S(el)   - electronic entropy
     S(vib)  - vibrational entropy
     S(rot)  - rotational entropy
     S(trans)- translational entropy
The entropies will be listed as mutliplied by the temperature to get
units of energy

Electronic entropy                ...      0.00000000 Eh      0.00 kcal/mol
Vibrational entropy               ...      0.01090261 Eh      6.84 kcal/mol
Rotational entropy                ...      0.01278696 Eh      8.02 kcal/mol
Translational entropy             ...      0.01840717 Eh     11.55 kcal/mol
-----------------------------------------------------------------------
Final entropy term                ...      0.04209675 Eh     26.42 kcal/mol

In case the symmetry of your molecule has not been determined correctly
or in case you have a reason to use a different symmetry number we print 
out the resulting rotational entropy values for sn=1,12 :
 --------------------------------------------------------
|  sn= 1 | S(rot)=       0.01278696 Eh      8.02 kcal/mol|
|  sn= 2 | S(rot)=       0.01213250 Eh      7.61 kcal/mol|
|  sn= 3 | S(rot)=       0.01174967 Eh      7.37 kcal/mol|
|  sn= 4 | S(rot)=       0.01147805 Eh      7.20 kcal/mol|
|  sn= 5 | S(rot)=       0.01126736 Eh      7.07 kcal/mol|
|  sn= 6 | S(rot)=       0.01109522 Eh      6.96 kcal/mol|
|  sn= 7 | S(rot)=       0.01094967 Eh      6.87 kcal/mol|
|  sn= 8 | S(rot)=       0.01082359 Eh      6.79 kcal/mol|
|  sn= 9 | S(rot)=       0.01071238 Eh      6.72 kcal/mol|
|  sn=10 | S(rot)=       0.01061290 Eh      6.66 kcal/mol|
|  sn=11 | S(rot)=       0.01052291 Eh      6.60 kcal/mol|
|  sn=12 | S(rot)=       0.01044076 Eh      6.55 kcal/mol|
 --------------------------------------------------------


-------------------
GIBBS FREE ENERGY
-------------------

The Gibbs free energy is G = H - T*S

Total enthalpy                    ...   -305.77238457 Eh 
Total entropy correction          ...     -0.04209675 Eh    -26.42 kcal/mol
-----------------------------------------------------------------------
Final Gibbs free energy         ...   -305.81448131 Eh

For completeness - the Gibbs free energy minus the electronic energy
G-E(el)                           ...      0.06617214 Eh     41.52 kcal/mol


Total Time for Numerical Frequencies  :      1951.400 sec

Timings for individual modules:

Sum of individual times         ...      324.949 sec (=   5.416 min)
GTO integral calculation        ...        9.385 sec (=   0.156 min)   2.9 %
SCF iterations                  ...      176.701 sec (=   2.945 min)  54.4 %
SCF Gradient evaluation         ...      138.051 sec (=   2.301 min)  42.5 %
Geometry relaxation             ...        0.812 sec (=   0.014 min)   0.2 %
                             ****ORCA TERMINATED NORMALLY****
TOTAL RUN TIME: 0 days 0 hours 37 minutes 40 seconds 98 msec
