
                                 *****************
                                 * O   R   C   A *
                                 *****************

           --- An Ab Initio, DFT and Semiempirical electronic structure package ---

                  #######################################################
                  #                        -***-                        #
                  #          Department of theory and spectroscopy      #
                  #               Directorship: Frank Neese             #
                  #        Max Planck Institute fuer Kohlenforschung    #
                  #                Kaiser Wilhelm Platz 1               #
                  #                 D-45470 Muelheim/Ruhr               #
                  #                      Germany                        #
                  #                                                     #
                  #                  All rights reserved                #
                  #                        -***-                        #
                  #######################################################


                         Program Version 4.2.0 -  RELEASE  -


 With contributions from (in alphabetic order):
   Daniel Aravena         : Magnetic Suceptibility
   Michael Atanasov       : Ab Initio Ligand Field Theory (pilot matlab implementation)
   Alexander A. Auer      : GIAO ZORA, VPT2
   Ute Becker             : Parallelization
   Giovanni Bistoni       : ED, misc. LED, open-shell LED, HFLED
   Martin Brehm           : Molecular dynamics
   Dmytro Bykov           : SCF Hessian
   Vijay G. Chilkuri      : MRCI spin determinant printing, contributions to CSF-ICE
   Dipayan Datta          : RHF DLPNO-CCSD density
   Achintya Kumar Dutta   : EOM-CC, STEOM-CC
   Dmitry Ganyushin       : Spin-Orbit,Spin-Spin,Magnetic field MRCI
   Miquel Garcia          : C-PCM Hessian, Gaussian charge scheme
   Yang Guo               : DLPNO-NEVPT2, CIM, IAO-localization
   Andreas Hansen         : Spin unrestricted coupled pair/coupled cluster methods
   Benjamin Helmich-Paris : CASSCF linear response (MC-RPA)
   Lee Huntington         : MR-EOM, pCC
   Robert Izsak           : Overlap fitted RIJCOSX, COSX-SCS-MP3, EOM
   Christian Kollmar      : KDIIS, OOCD, Brueckner-CCSD(T), CCSD density
   Simone Kossmann        : Meta GGA functionals, TD-DFT gradient, OOMP2, MP2 Hessian
   Martin Krupicka        : AUTO-CI
   Lucas Lang             : DCDCAS
   Dagmar Lenk            : GEPOL surface, SMD
   Dimitrios Liakos       : Extrapolation schemes; Compound Job, initial MDCI parallelization
   Dimitrios Manganas     : Further ROCIS development; embedding schemes
   Dimitrios Pantazis     : SARC Basis sets
   Taras Petrenko         : DFT Hessian,TD-DFT gradient, ASA, ECA, R-Raman, ABS, FL, XAS/XES, NRVS
   Peter Pinski           : DLPNO-MP2, DLPNO-MP2 Gradient
   Christoph Reimann      : Effective Core Potentials
   Marius Retegan         : Local ZFS, SOC
   Christoph Riplinger    : Optimizer, TS searches, QM/MM, DLPNO-CCSD(T), (RO)-DLPNO pert. Triples
   Tobias Risthaus        : Range-separated hybrids, TD-DFT gradient, RPA, STAB
   Michael Roemelt        : Original ROCIS implementation
   Masaaki Saitow         : Open-shell DLPNO-CCSD energy and density
   Barbara Sandhoefer     : DKH picture change effects
   Avijit Sen             : IP-ROCIS
   Kantharuban Sivalingam : CASSCF convergence, NEVPT2, FIC-MRCI
   Bernardo de Souza      : ESD, SOC TD-DFT
   Georgi Stoychev        : AutoAux, RI-MP2 NMR
   Willem Van den Heuvel  : Paramagnetic NMR
   Boris Wezisla          : Elementary symmetry handling
   Frank Wennmohs         : Technical directorship


 We gratefully acknowledge several colleagues who have allowed us to
 interface, adapt or use parts of their codes:
   Stefan Grimme, W. Hujo, H. Kruse,             : VdW corrections, initial TS optimization,
                  C. Bannwarth                     DFT functionals, gCP, sTDA/sTD-DF
   Ed Valeev, F. Pavosevic, A. Kumar             : LibInt (2-el integral package), F12 methods
   Garnet Chan, S. Sharma, J. Yang, R. Olivares  : DMRG
   Ulf Ekstrom                                   : XCFun DFT Library
   Mihaly Kallay                                 : mrcc  (arbitrary order and MRCC methods)
   Andreas Klamt, Michael Diedenhofen            : otool_cosmo (COSMO solvation model)
   Jiri Pittner, Ondrej Demel                    : Mk-CCSD
   Frank Weinhold                                : gennbo (NPA and NBO analysis)
   Christopher J. Cramer and Donald G. Truhlar   : smd solvation model
   Lars Goerigk                                  : TD-DFT with DH, B97 family of functionals
   V. Asgeirsson, H. Jonsson                     : NEB implementation
   FAccTs GmbH                                   : IRC, NEB, NEB-TS, Multilevel, MM, QM/MM, CI optimization
   S Lehtola, MJT Oliveira, MAL Marques          : LibXC Library


 Your calculation uses the libint2 library for the computation of 2-el integrals
 For citations please refer to: http://libint.valeyev.net

 Your ORCA version has been built with support for libXC version: 4.2.3
 For citations please refer to: https://tddft.org/programs/libxc/

 This ORCA versions uses:
   CBLAS   interface :  Fast vector & matrix operations
   LAPACKE interface :  Fast linear algebra routines
   SCALAPACK package :  Parallel linear algebra routines


Your calculation utilizes the atom-pairwise dispersion correction
with the Becke-Johnson damping scheme (D3BJ)
Cite in your paper:
S.Grimme, S.Ehrlich, L.Goerigk, J Comput Chem, (2011), 32, 1456–1465 
S.Grimme, J.Antony, S.Ehrlich and H.Krieg, J.Chem.Phys., 132, (2010), 154104 
   

----- Orbital basis set information -----
Your calculation utilizes the basis: aug-cc-pV(T+d)Z 
             Al - Ar: T.H. Dunning, Jr., K. A. Peterson and A. K. Wilson, J. Chem. Phys.
                      114, 9244 (2001)

----- AuxJK basis set information -----
Your calculation utilizes the auxiliary basis: def2/JK
   H-Ba, Hf-Rn: F. Weigend, J. Comput. Chem. 29, 167 (2008).

================================================================================
                                        WARNINGS
                       Please study these warnings very carefully!
================================================================================


WARNING: Geometry Optimization
  ===> : Switching off AutoStart
         For restart on a previous wavefunction, please use MOREAD

INFO   : the flag for use of LIBINT has been found!

================================================================================
                                       INPUT FILE
================================================================================
NAME = 05_H2O_5.in
|  1> #
|  2> # 05_H2O_5 tpssh/aug-cc-pvt(+d)z
|  3> #
|  4> ! tpssh d3bj aug-cc-pvt(+d)z def2/jk grid4 nofinalgrid opt xyzfile numfreq
|  5> 
|  6> *xyz 0 1
|  7> O	2.312927	0.150318	0.177415
|  8> O	0.864769	-2.137443	-0.15942
|  9> O	-1.781315	-1.498466	0.059758
| 10> O	-1.961951	1.234812	-0.062774
| 11> O	0.577396	2.241432	-0.075822
| 12> H	1.836849	-0.694236	0.04925
| 13> H	-0.089971	-1.943593	-0.076678
| 14> H	-1.915322	-0.530797	0.048103
| 15> H	-1.066728	1.628166	-0.074484
| 16> H	1.229463	1.522335	0.042111
| 17> H	2.825562	0.034681	0.978576
| 18> H	0.953988	-2.623745	-0.980296
| 19> H	-2.260123	-1.814802	0.826889
| 20> H	-2.472247	1.784461	0.533098
| 21> H	0.863928	2.71231	-0.859811
| 22> *
| 23> 
| 24> %maxcore 5000
| 25> 
| 26> %pal
| 27> nprocs 24
| 28> end
| 29> 
| 30> 
| 31>                          ****END OF INPUT****
================================================================================

                       *****************************
                       * Geometry Optimization Run *
                       *****************************

Geometry optimization settings:
Update method            Update   .... BFGS
Choice of coordinates    CoordSys .... Z-matrix Internals
Initial Hessian          InHess   .... Almoef's Model

Convergence Tolerances:
Energy Change            TolE     ....  5.0000e-06 Eh
Max. Gradient            TolMAXG  ....  3.0000e-04 Eh/bohr
RMS Gradient             TolRMSG  ....  1.0000e-04 Eh/bohr
Max. Displacement        TolMAXD  ....  4.0000e-03 bohr
RMS Displacement         TolRMSD  ....  2.0000e-03 bohr
Strict Convergence                ....  False
------------------------------------------------------------------------------
                        ORCA OPTIMIZATION COORDINATE SETUP
------------------------------------------------------------------------------

The optimization will be done in new redundant internal coordinates
Making redundant internal coordinates   ...  (new redundants) done
Evaluating the initial hessian          ...  (Almloef) done
Evaluating the coordinates              ...  done
Calculating the B-matrix                .... done
Calculating the G-matrix                .... done
Diagonalizing the G-matrix              .... done
The first mode is                       ....   20
The number of degrees of freedom        ....   39

    -----------------------------------------------------------------
                    Redundant Internal Coordinates


    -----------------------------------------------------------------
         Definition                    Initial Value    Approx d2E/dq
    -----------------------------------------------------------------
      1. B(H   5,O   0)                  0.9779         0.486810   
      2. B(H   5,O   1)                  1.7525         0.028285   
      3. B(H   6,O   2)                  1.7543         0.028105   
      4. B(H   6,O   1)                  0.9777         0.487172   
      5. B(H   7,O   2)                  0.9770         0.488525   
      6. B(H   7,O   3)                  1.7697         0.026555   
      7. B(H   8,O   4)                  1.7548         0.028051   
      8. B(H   8,O   3)                  0.9779         0.486865   
      9. B(H   9,O   0)                  1.7535         0.028187   
     10. B(H   9,O   4)                  0.9779         0.486946   
     11. B(H  10,O   0)                  0.9581         0.523528   
     12. B(H  11,O   1)                  0.9583         0.523266   
     13. B(H  12,O   2)                  0.9580         0.523739   
     14. B(H  13,O   3)                  0.9579         0.523976   
     15. B(H  14,O   4)                  0.9584         0.523087   
     16. A(H   9,O   0,H  10)          119.3112         0.209557   
     17. A(H   5,O   0,H   9)          111.3968         0.207590   
     18. A(H   5,O   0,H  10)          105.4158         0.318744   
     19. A(H   5,O   1,H   6)          111.6099         0.207702   
     20. A(H   5,O   1,H  11)          117.9216         0.209638   
     21. A(H   6,O   1,H  11)          105.3089         0.318757   
     22. A(H   7,O   2,H  12)          105.5483         0.318948   
     23. A(H   6,O   2,H  12)          117.4101         0.209489   
     24. A(H   6,O   2,H   7)          112.4976         0.207606   
     25. A(H   7,O   3,H  13)          123.1984         0.207964   
     26. A(H   8,O   3,H  13)          105.3267         0.318794   
     27. A(H   7,O   3,H   8)          112.2063         0.206002   
     28. A(H   9,O   4,H  14)          105.1062         0.318715   
     29. A(H   8,O   4,H  14)          116.9019         0.209403   
     30. A(H   8,O   4,H   9)          111.5732         0.207467   
     31. L(O   0,H   5,O   1,H   9, 2) 181.6716         0.207682   
     32. L(O   0,H   5,O   1,H   9, 1) 175.5995         0.207682   
     33. L(O   1,H   6,O   2,H   5, 2) 178.7819         0.207532   
     34. L(O   1,H   6,O   2,H   5, 1) 176.8415         0.207532   
     35. A(O   2,H   7,O   3)          173.0006         0.206092   
     36. L(O   3,H   8,O   4,H   7, 2) 180.5842         0.207463   
     37. L(O   3,H   8,O   4,H   7, 1) 176.7000         0.207463   
     38. L(O   0,H   9,O   4,H   8, 2) 183.5434         0.207597   
     39. L(O   0,H   9,O   4,H   8, 1) 176.1760         0.207597   
     40. D(H  11,O   1,O   0,H   9)    106.4348         0.001501   
     41. D(H   6,O   1,O   0,H   9)    -14.9279         0.001501   
     42. D(H   6,O   1,O   0,H  10)    114.8119         0.001501   
     43. D(H  11,O   1,O   0,H  10)   -123.8254         0.001501   
     44. D(H   7,O   2,O   1,H   5)     11.4802         0.001501   
     45. D(H  12,O   2,O   1,H  11)    120.8135         0.001501   
     46. D(H   7,O   2,O   1,H  11)   -116.8515         0.001501   
     47. D(H  12,O   2,O   1,H   5)   -110.8548         0.001501   
     48. D(H   9,O   4,O   3,H   7)     -3.7701         0.001501   
     49. D(H   9,O   4,O   3,H  13)    132.1214         0.001501   
     50. D(H   8,O   4,O   0,H  10)   -110.9981         0.001501   
     51. D(H   8,O   4,O   0,H   5)     11.9003         0.001501   
     52. D(H  14,O   4,O   0,H  10)    122.7980         0.001501   
     53. D(H  14,O   4,O   3,H  13)   -107.3675         0.001501   
     54. D(H  14,O   4,O   0,H   5)   -114.3036         0.001501   
     55. D(H  14,O   4,O   3,H   7)    116.7411         0.001501   
     56. D(O   2,H   7,O   3,H  13)   -152.6002         0.001881   
     57. D(O   2,H   7,O   3,H   8)    -25.1333         0.001881   
     58. D(O   3,H   7,O   2,H   6)     19.5321         0.294450   
     59. D(O   3,H   7,O   2,H  12)    148.7623         0.294450   
    -----------------------------------------------------------------

Number of atoms                         .... 15
Number of degrees of freedom            .... 59

         *************************************************************
         *                GEOMETRY OPTIMIZATION CYCLE   1            *
         *************************************************************
---------------------------------
CARTESIAN COORDINATES (ANGSTROEM)
---------------------------------
  O      2.312927    0.150318    0.177415
  O      0.864769   -2.137443   -0.159420
  O     -1.781315   -1.498466    0.059758
  O     -1.961951    1.234812   -0.062774
  O      0.577396    2.241432   -0.075822
  H      1.836849   -0.694236    0.049250
  H     -0.089971   -1.943593   -0.076678
  H     -1.915322   -0.530797    0.048103
  H     -1.066728    1.628166   -0.074484
  H      1.229463    1.522335    0.042111
  H      2.825562    0.034681    0.978576
  H      0.953988   -2.623745   -0.980296
  H     -2.260123   -1.814802    0.826889
  H     -2.472247    1.784461    0.533098
  H      0.863928    2.712310   -0.859811

----------------------------
CARTESIAN COORDINATES (A.U.)
----------------------------
  NO LB      ZA    FRAG     MASS         X           Y           Z
   0 O     8.0000    0    15.999    4.370799    0.284060    0.335266
   1 O     8.0000    0    15.999    1.634177   -4.039182   -0.301260
   2 O     8.0000    0    15.999   -3.366198   -2.831690    0.112926
   3 O     8.0000    0    15.999   -3.707550    2.333457   -0.118626
   4 O     8.0000    0    15.999    1.091120    4.235693   -0.143283
   5 H     1.0000    0     1.008    3.471142   -1.311916    0.093069
   6 H     1.0000    0     1.008   -0.170021   -3.672858   -0.144900
   7 H     1.0000    0     1.008   -3.619434   -1.003061    0.090901
   8 H     1.0000    0     1.008   -2.015824    3.076788   -0.140754
   9 H     1.0000    0     1.008    2.323348    2.876796    0.079578
  10 H     1.0000    0     1.008    5.339538    0.065538    1.849241
  11 H     1.0000    0     1.008    1.802776   -4.958159   -1.852491
  12 H     1.0000    0     1.008   -4.271013   -3.429479    1.562594
  13 H     1.0000    0     1.008   -4.671870    3.372143    1.007409
  14 H     1.0000    0     1.008    1.632587    5.125523   -1.624807

--------------------------------
INTERNAL COORDINATES (ANGSTROEM)
--------------------------------
 O      0   0   0     0.000000000000     0.00000000     0.00000000
 O      1   0   0     2.728455571071     0.00000000     0.00000000
 O      2   1   0     2.730950592242   107.94925627     0.00000000
 O      3   2   1     2.741979591610   107.06628089    13.09730221
 O      1   2   3     2.729277301984   107.06549532   344.98490806
 H      1   2   3     0.977930461856     2.93309900   181.59899752
 H      2   1   3     0.977728248883   109.97391047   359.38512925
 H      3   2   1     0.976973391979   111.32718232    11.52866055
 H      4   3   2     0.977900154998   109.94962754   354.18953913
 H      5   1   2     0.977854825824     2.96622939   156.26657087
 H      1   2   3     0.958136476143   106.61897896   115.42672130
 H      2   1   3     0.958272963482   118.80609298   120.74784289
 H      3   2   1     0.958026897807   118.11621857   249.19366164
 H      4   3   2     0.957903685764   125.39988308   227.11000997
 H      5   1   2     0.958366020907   105.20261475   244.80497783

---------------------------
INTERNAL COORDINATES (A.U.)
---------------------------
 O      0   0   0     0.000000000000     0.00000000     0.00000000
 O      1   0   0     5.156033797896     0.00000000     0.00000000
 O      2   1   0     5.160748704608   107.94925627     0.00000000
 O      3   2   1     5.181590492944   107.06628089    13.09730221
 O      1   2   3     5.157586644278   107.06549532   344.98490806
 H      1   2   3     1.848020750926     2.93309900   181.59899752
 H      2   1   3     1.847638623787   109.97391047   359.38512925
 H      3   2   1     1.846212150968   111.32718232    11.52866055
 H      4   3   2     1.847963479265   109.94962754   354.18953913
 H      5   1   2     1.847877819540     2.96622939   156.26657087
 H      1   2   3     1.810615538830   106.61897896   115.42672130
 H      2   1   3     1.810873462523   118.80609298   120.74784289
 H      3   2   1     1.810408465785   118.11621857   249.19366164
 H      4   3   2     1.810175628768   125.39988308   227.11000997
 H      5   1   2     1.811049315570   105.20261475   244.80497783

---------------------
BASIS SET INFORMATION
---------------------
There are 2 groups of distinct atoms

 Group   1 Type O   : 19s6p3d2f contracted to 5s4p3d2f pattern {88111/3111/111/11}
 Group   2 Type H   : 6s3p2d contracted to 4s3p2d pattern {3111/111/11}

Atom   0O    basis set group =>   1
Atom   1O    basis set group =>   1
Atom   2O    basis set group =>   1
Atom   3O    basis set group =>   1
Atom   4O    basis set group =>   1
Atom   5H    basis set group =>   2
Atom   6H    basis set group =>   2
Atom   7H    basis set group =>   2
Atom   8H    basis set group =>   2
Atom   9H    basis set group =>   2
Atom  10H    basis set group =>   2
Atom  11H    basis set group =>   2
Atom  12H    basis set group =>   2
Atom  13H    basis set group =>   2
Atom  14H    basis set group =>   2
----------------------------------
AUXILIARY/JK BASIS SET INFORMATION
----------------------------------
There are 2 groups of distinct atoms

 Group   1 Type O   : 14s10p6d2f1g contracted to 10s8p4d2f1g pattern {5111111111/31111111/3111/11/1}
 Group   2 Type H   : 4s2p2d contracted to 2s2p2d pattern {31/11/11}

Atom   0O    basis set group =>   1
Atom   1O    basis set group =>   1
Atom   2O    basis set group =>   1
Atom   3O    basis set group =>   1
Atom   4O    basis set group =>   1
Atom   5H    basis set group =>   2
Atom   6H    basis set group =>   2
Atom   7H    basis set group =>   2
Atom   8H    basis set group =>   2
Atom   9H    basis set group =>   2
Atom  10H    basis set group =>   2
Atom  11H    basis set group =>   2
Atom  12H    basis set group =>   2
Atom  13H    basis set group =>   2
Atom  14H    basis set group =>   2


           ************************************************************
           *        Program running with 24 parallel MPI-processes    *
           *              working on a common directory               *
           ************************************************************
------------------------------------------------------------------------------
                           ORCA GTO INTEGRAL CALCULATION
------------------------------------------------------------------------------

                         BASIS SET STATISTICS AND STARTUP INFO

 # of primitive gaussian shells          ...  260
 # of primitive gaussian functions       ...  580
 # of contracted shells                  ...  160
 # of contracted basis functions         ...  460
 Highest angular momentum                ...    3
 Maximum contraction depth               ...    8
 Integral package used                   ... LIBINT
 Integral threshhold            Thresh   ...  2.500e-11
 Primitive cut-off              TCut     ...  2.500e-12


------------------------------ INTEGRAL EVALUATION ----------------------------


 * One electron integrals 
 Pre-screening matrix                    ... done
 Shell pair data                         ... done (   0.003 sec)



           ************************************************************
           *        Program running with 24 parallel MPI-processes    *
           *              working on a common directory               *
           ************************************************************
-------------------------------------------------------------------------------
                                 ORCA SCF
-------------------------------------------------------------------------------

------------
SCF SETTINGS
------------
Hamiltonian:
 Density Functional     Method          .... DFT(GTOs)
 Exchange Functional    Exchange        .... TPSS
 Correlation Functional Correlation     .... TPSS
 LDA part of GGA corr.  LDAOpt          .... PW91-LDA
 Gradients option       PostSCFGGA      .... off
 Hybrid DFT is turned on
   Fraction HF Exchange ScalHFX         ....  0.100000
   Scaling of DF-GGA-X  ScalDFX         ....  0.900000
   Scaling of DF-GGA-C  ScalDFC         ....  1.000000
   Scaling of DF-LDA-C  ScalLDAC        ....  1.000000
   Perturbative correction              ....  0.000000
   Density functional embedding theory  .... OFF
   NL short-range parameter             ....  5.200000


General Settings:
 Integral files         IntName         .... 05_H2O_5
 Hartree-Fock type      HFTyp           .... RHF
 Total Charge           Charge          ....    0
 Multiplicity           Mult            ....    1
 Number of Electrons    NEL             ....   50
 Basis Dimension        Dim             ....  460
 Nuclear Repulsion      ENuc            ....    202.7548338254 Eh

Convergence Acceleration:
 DIIS                   CNVDIIS         .... on
   Start iteration      DIISMaxIt       ....    12
   Startup error        DIISStart       ....  0.200000
   # of expansion vecs  DIISMaxEq       ....     5
   Bias factor          DIISBfac        ....   1.050
   Max. coefficient     DIISMaxC        ....  10.000
 Newton-Raphson         CNVNR           .... off
 SOSCF                  CNVSOSCF        .... on
   Start iteration      SOSCFMaxIt      ....   150
   Startup grad/error   SOSCFStart      ....  0.003300
 Level Shifting         CNVShift        .... on
   Level shift para.    LevelShift      ....    0.2500
   Turn off err/grad.   ShiftErr        ....    0.0010
 Zerner damping         CNVZerner       .... off
 Static damping         CNVDamp         .... on
   Fraction old density DampFac         ....    0.7000
   Max. Damping (<1)    DampMax         ....    0.9800
   Min. Damping (>=0)   DampMin         ....    0.0000
   Turn off err/grad.   DampErr         ....    0.1000
 Fernandez-Rico         CNVRico         .... off

SCF Procedure:
 Maximum # iterations   MaxIter         ....   125
 SCF integral mode      SCFMode         .... Direct
   Integral package                     .... LIBINT
 Reset frequency        DirectResetFreq ....    20
 Integral Threshold     Thresh          ....  2.500e-11 Eh
 Primitive CutOff       TCut            ....  2.500e-12 Eh

Convergence Tolerance:
 Convergence Check Mode ConvCheckMode   .... Total+1el-Energy
 Convergence forced     ConvForced      .... 0
 Energy Change          TolE            ....  1.000e-08 Eh
 1-El. energy change                    ....  1.000e-05 Eh
 Orbital Gradient       TolG            ....  1.000e-05
 Orbital Rotation angle TolX            ....  1.000e-05
 DIIS Error             TolErr          ....  5.000e-07


Diagonalization of the overlap matrix:
Smallest eigenvalue                        ... 1.108e-04
Time for diagonalization                   ...    0.029 sec
Threshold for overlap eigenvalues          ... 1.000e-08
Number of eigenvalues below threshold      ... 0
Time for construction of square roots      ...    0.026 sec
Total time needed                          ...    0.056 sec

-------------------
DFT GRID GENERATION
-------------------

General Integration Accuracy     IntAcc      ...  4.670
Radial Grid Type                 RadialGrid  ... Gauss-Chebyshev
Angular Grid (max. acc.)         AngularGrid ... Lebedev-302
Angular grid pruning method      GridPruning ... 3 (G Style)
Weight generation scheme         WeightScheme... Becke
Basis function cutoff            BFCut       ...    1.0000e-11
Integration weight cutoff        WCut        ...    1.0000e-14
Grids for H and He will be reduced by one unit

# of grid points (after initial pruning)     ...  65000 (   0.0 sec)
# of grid points (after weights+screening)   ...  61006 (   0.0 sec)
nearest neighbour list constructed           ...    0.0 sec
Grid point re-assignment to atoms done       ...    0.0 sec
Grid point division into batches done        ...    0.2 sec
Reduced shell lists constructed in    0.2 sec

Total number of grid points                  ...    61006
Total number of batches                      ...      960
Average number of points per batch           ...       63
Average number of grid points per atom       ...     4067
Average number of shells per batch           ...   106.54 (66.59%)
Average number of basis functions per batch  ...   293.37 (63.78%)
Average number of large shells per batch     ...    85.71 (80.45%)
Average number of large basis fcns per batch ...   229.17 (78.12%)
Maximum spatial batch extension              ...  11.76, 10.65,  8.33 au
Average spatial batch extension              ...   0.09,  0.09,  0.08 au

Time for grid setup =    0.270 sec

------------------------------
INITIAL GUESS: MODEL POTENTIAL
------------------------------
Loading Hartree-Fock densities                     ... done
Calculating cut-offs                               ... done
Setting up the integral package                    ... done
Initializing the effective Hamiltonian             ... done
Starting the Coulomb interaction                   ... done (   0.0 sec)
Reading the grid                                   ... done
Mapping shells                                     ... done
Starting the XC term evaluation                    ... done (   0.1 sec)
  promolecular density results
     # of electrons  =     49.994577283
     EX              =    -43.711140706
     EC              =     -1.615606768
     EX+EC           =    -45.326747474
Transforming the Hamiltonian                       ... done (   0.0 sec)
Diagonalizing the Hamiltonian                      ... done (   0.0 sec)
Back transforming the eigenvectors                 ... done (   0.0 sec)
Now organizing SCF variables                       ... done
                      ------------------
                      INITIAL GUESS DONE (   0.5 sec)
                      ------------------
--------------
SCF ITERATIONS
--------------
ITER       Energy         Delta-E        Max-DP      RMS-DP      [F,P]     Damp
               ***  Starting incremental Fock matrix formation  ***
  0   -381.9708801817   0.000000000000 0.07771714  0.00097975  0.3189162 0.7000
  1   -382.1606875502  -0.189807368538 0.03814707  0.00056086  0.1252813 0.7000
                               ***Turning on DIIS***
  2   -382.2189548689  -0.058267318653 0.04856975  0.00068726  0.0281919 0.0000
  3   -382.3250076736  -0.106052804737 0.01591562  0.00028952  0.0727051 0.0000
  4   -382.3455536055  -0.020545931872 0.00320532  0.00006676  0.0133358 0.0000
                      *** Initiating the SOSCF procedure ***
                           *** Shutting down DIIS ***
                      *** Re-Reading the Fockian *** 
                      *** Removing any level shift *** 
ITER      Energy       Delta-E        Grad      Rot      Max-DP    RMS-DP
  5   -382.34654252  -0.0009889168  0.000592  0.000592  0.001735  0.000026
               *** Restarting incremental Fock matrix formation ***
  6   -382.34660005  -0.0000575240  0.000307  0.000916  0.002110  0.000029
  7   -382.34660123  -0.0000011837  0.000297  0.000149  0.000702  0.000011
  8   -382.34660796  -0.0000067334  0.000034  0.000120  0.000368  0.000005
  9   -382.34660813  -0.0000001633  0.000019  0.000019  0.000052  0.000001
 10   -382.34660814  -0.0000000099  0.000015  0.000022  0.000080  0.000001
                  ***Gradient check signals convergence***
              ***Rediagonalizing the Fockian in SOSCF/NRSCF***

               *****************************************************
               *                     SUCCESS                       *
               *           SCF CONVERGED AFTER  11 CYCLES          *
               *****************************************************


----------------
TOTAL SCF ENERGY
----------------

Total Energy       :         -382.34660816 Eh          -10404.18015 eV

Components:
Nuclear Repulsion  :          202.75483383 Eh            5517.23952 eV
Electronic Energy  :         -585.10144199 Eh          -15921.41967 eV
One Electron Energy:         -929.12232327 Eh          -25282.70376 eV
Two Electron Energy:          344.02088128 Eh            9361.28410 eV

Virial components:
Potential Energy   :         -762.88422194 Eh          -20759.13505 eV
Kinetic Energy     :          380.53761378 Eh           10354.95491 eV
Virial Ratio       :            2.00475379


DFT components:
N(Alpha)           :       24.999863721939 electrons
N(Beta)            :       24.999863721939 electrons
N(Total)           :       49.999727443877 electrons
E(X)               :      -40.581174650087 Eh       
E(C)               :       -1.662596061979 Eh       
E(XC)              :      -42.243770712066 Eh       
DFET-embed. en.    :        0.000000000000 Eh       

---------------
SCF CONVERGENCE
---------------

  Last Energy change         ...   -2.5659e-08  Tolerance :   1.0000e-08
  Last MAX-Density change    ...    2.1067e-05  Tolerance :   1.0000e-07
  Last RMS-Density change    ...    2.9805e-07  Tolerance :   5.0000e-09
  Last Orbital Gradient      ...    2.1536e-06  Tolerance :   1.0000e-05
  Last Orbital Rotation      ...    7.1654e-06  Tolerance :   1.0000e-05

             **** THE GBW FILE WAS UPDATED (05_H2O_5.gbw) ****
             **** DENSITY FILE WAS UPDATED (05_H2O_5.scfp) ****
             **** ENERGY FILE WAS UPDATED (05_H2O_5.en.tmp) ****
             **** THE GBW FILE WAS UPDATED (05_H2O_5.gbw) ****
             **** DENSITY FILE WAS UPDATED (05_H2O_5.scfp) ****
----------------
ORBITAL ENERGIES
----------------

  NO   OCC          E(Eh)            E(eV) 
   0   2.0000     -19.051685      -518.4227 
   1   2.0000     -19.050467      -518.3896 
   2   2.0000     -19.050283      -518.3846 
   3   2.0000     -19.050026      -518.3776 
   4   2.0000     -19.049625      -518.3667 
   5   2.0000      -0.999833       -27.2068 
   6   2.0000      -0.991627       -26.9835 
   7   2.0000      -0.990907       -26.9640 
   8   2.0000      -0.977377       -26.5958 
   9   2.0000      -0.976539       -26.5730 
  10   2.0000      -0.516491       -14.0544 
  11   2.0000      -0.512449       -13.9444 
  12   2.0000      -0.510473       -13.8907 
  13   2.0000      -0.507526       -13.8105 
  14   2.0000      -0.506107       -13.7719 
  15   2.0000      -0.406306       -11.0561 
  16   2.0000      -0.403575       -10.9818 
  17   2.0000      -0.365723        -9.9518 
  18   2.0000      -0.363580        -9.8935 
  19   2.0000      -0.338440        -9.2094 
  20   2.0000      -0.299072        -8.1382 
  21   2.0000      -0.295668        -8.0455 
  22   2.0000      -0.294492        -8.0135 
  23   2.0000      -0.293697        -7.9919 
  24   2.0000      -0.289601        -7.8804 
  25   0.0000      -0.024560        -0.6683 
  26   0.0000      -0.003737        -0.1017 
  27   0.0000      -0.001449        -0.0394 
  28   0.0000       0.012386         0.3370 
  29   0.0000       0.020029         0.5450 
  30   0.0000       0.041688         1.1344 
  31   0.0000       0.047549         1.2939 
  32   0.0000       0.047897         1.3033 
  33   0.0000       0.053150         1.4463 
  34   0.0000       0.067662         1.8412 
  35   0.0000       0.085145         2.3169 
  36   0.0000       0.089106         2.4247 
  37   0.0000       0.091053         2.4777 
  38   0.0000       0.092063         2.5052 
  39   0.0000       0.104853         2.8532 
  40   0.0000       0.107279         2.9192 
  41   0.0000       0.109649         2.9837 
  42   0.0000       0.113023         3.0755 
  43   0.0000       0.131886         3.5888 
  44   0.0000       0.135796         3.6952 
  45   0.0000       0.141867         3.8604 
  46   0.0000       0.149065         4.0563 
  47   0.0000       0.156371         4.2551 
  48   0.0000       0.159020         4.3271 
  49   0.0000       0.161906         4.4057 
  50   0.0000       0.168319         4.5802 
  51   0.0000       0.177868         4.8400 
  52   0.0000       0.182633         4.9697 
  53   0.0000       0.188401         5.1267 
  54   0.0000       0.192657         5.2425 
  55   0.0000       0.201767         5.4904 
  56   0.0000       0.204412         5.5623 
  57   0.0000       0.210265         5.7216 
  58   0.0000       0.219575         5.9749 
  59   0.0000       0.223636         6.0854 
  60   0.0000       0.231058         6.2874 
  61   0.0000       0.250818         6.8251 
  62   0.0000       0.267037         7.2664 
  63   0.0000       0.268937         7.3182 
  64   0.0000       0.282806         7.6955 
  65   0.0000       0.285550         7.7702 
  66   0.0000       0.288472         7.8497 
  67   0.0000       0.297624         8.0987 
  68   0.0000       0.309126         8.4117 
  69   0.0000       0.310274         8.4430 
  70   0.0000       0.314290         8.5523 
  71   0.0000       0.321819         8.7571 
  72   0.0000       0.327356         8.9078 
  73   0.0000       0.334309         9.0970 
  74   0.0000       0.337844         9.1932 
  75   0.0000       0.341471         9.2919 
  76   0.0000       0.343627         9.3506 
  77   0.0000       0.345370         9.3980 
  78   0.0000       0.348908         9.4943 
  79   0.0000       0.357054         9.7159 
  80   0.0000       0.357913         9.7393 
  81   0.0000       0.362253         9.8574 
  82   0.0000       0.372930        10.1479 
  83   0.0000       0.377283        10.2664 
  84   0.0000       0.386967        10.5299 
  85   0.0000       0.389684        10.6039 
  86   0.0000       0.399067        10.8592 
  87   0.0000       0.403502        10.9798 
  88   0.0000       0.412704        11.2302 
  89   0.0000       0.414518        11.2796 
  90   0.0000       0.458382        12.4732 
  91   0.0000       0.464391        12.6367 
  92   0.0000       0.471419        12.8280 
  93   0.0000       0.478881        13.0310 
  94   0.0000       0.489395        13.3171 
  95   0.0000       0.492589        13.4040 
  96   0.0000       0.525572        14.3015 
  97   0.0000       0.539194        14.6722 
  98   0.0000       0.545950        14.8560 
  99   0.0000       0.571073        15.5397 
 100   0.0000       0.576040        15.6748 
 101   0.0000       0.592097        16.1118 
 102   0.0000       0.596126        16.2214 
 103   0.0000       0.598907        16.2971 
 104   0.0000       0.621264        16.9054 
 105   0.0000       0.624176        16.9847 
 106   0.0000       0.642701        17.4888 
 107   0.0000       0.653314        17.7776 
 108   0.0000       0.664980        18.0950 
 109   0.0000       0.667572        18.1656 
 110   0.0000       0.681286        18.5387 
 111   0.0000       0.686873        18.6908 
 112   0.0000       0.699703        19.0399 
 113   0.0000       0.701506        19.0890 
 114   0.0000       0.720750        19.6126 
 115   0.0000       0.730552        19.8793 
 116   0.0000       0.733159        19.9503 
 117   0.0000       0.740449        20.1486 
 118   0.0000       0.751178        20.4406 
 119   0.0000       0.759711        20.6728 
 120   0.0000       0.772329        21.0161 
 121   0.0000       0.785980        21.3876 
 122   0.0000       0.789294        21.4778 
 123   0.0000       0.793510        21.5925 
 124   0.0000       0.795805        21.6550 
 125   0.0000       0.804268        21.8852 
 126   0.0000       0.815001        22.1773 
 127   0.0000       0.823271        22.4023 
 128   0.0000       0.832051        22.6413 
 129   0.0000       0.834853        22.7175 
 130   0.0000       0.837876        22.7998 
 131   0.0000       0.846624        23.0378 
 132   0.0000       0.848186        23.0803 
 133   0.0000       0.850991        23.1566 
 134   0.0000       0.860103        23.4046 
 135   0.0000       0.865808        23.5598 
 136   0.0000       0.870021        23.6745 
 137   0.0000       0.875936        23.8354 
 138   0.0000       0.880201        23.9515 
 139   0.0000       0.898023        24.4365 
 140   0.0000       0.905111        24.6293 
 141   0.0000       0.908022        24.7085 
 142   0.0000       0.915273        24.9058 
 143   0.0000       0.923660        25.1341 
 144   0.0000       0.933596        25.4044 
 145   0.0000       0.950500        25.8644 
 146   0.0000       0.961973        26.1766 
 147   0.0000       0.974190        26.5091 
 148   0.0000       0.982173        26.7263 
 149   0.0000       0.984051        26.7774 
 150   0.0000       1.020241        27.7622 
 151   0.0000       1.025967        27.9180 
 152   0.0000       1.030988        28.0546 
 153   0.0000       1.037430        28.2299 
 154   0.0000       1.045781        28.4572 
 155   0.0000       1.058211        28.7954 
 156   0.0000       1.063413        28.9369 
 157   0.0000       1.067979        29.0612 
 158   0.0000       1.086117        29.5547 
 159   0.0000       1.090307        29.6688 
 160   0.0000       1.098359        29.8879 
 161   0.0000       1.103707        30.0334 
 162   0.0000       1.112627        30.2761 
 163   0.0000       1.127151        30.6713 
 164   0.0000       1.132543        30.8181 
 165   0.0000       1.143232        31.1089 
 166   0.0000       1.150568        31.3085 
 167   0.0000       1.160338        31.5744 
 168   0.0000       1.182848        32.1869 
 169   0.0000       1.189615        32.3711 
 170   0.0000       1.193352        32.4728 
 171   0.0000       1.209876        32.9224 
 172   0.0000       1.216857        33.1124 
 173   0.0000       1.225936        33.3594 
 174   0.0000       1.232878        33.5483 
 175   0.0000       1.240104        33.7449 
 176   0.0000       1.252450        34.0809 
 177   0.0000       1.256806        34.1994 
 178   0.0000       1.265473        34.4353 
 179   0.0000       1.275838        34.7173 
 180   0.0000       1.313324        35.7374 
 181   0.0000       1.320660        35.9370 
 182   0.0000       1.329995        36.1910 
 183   0.0000       1.333128        36.2763 
 184   0.0000       1.366444        37.1828 
 185   0.0000       1.369819        37.2747 
 186   0.0000       1.382710        37.6254 
 187   0.0000       1.394586        37.9486 
 188   0.0000       1.403071        38.1795 
 189   0.0000       1.420920        38.6652 
 190   0.0000       1.438731        39.1499 
 191   0.0000       1.442961        39.2650 
 192   0.0000       1.452628        39.5280 
 193   0.0000       1.487626        40.4803 
 194   0.0000       1.504204        40.9315 
 195   0.0000       1.520428        41.3730 
 196   0.0000       1.535836        41.7922 
 197   0.0000       1.551934        42.2303 
 198   0.0000       1.560332        42.4588 
 199   0.0000       1.570175        42.7266 
 200   0.0000       1.590824        43.2885 
 201   0.0000       1.600490        43.5516 
 202   0.0000       1.616370        43.9837 
 203   0.0000       1.617876        44.0246 
 204   0.0000       1.621325        44.1185 
 205   0.0000       1.634583        44.4793 
 206   0.0000       1.639762        44.6202 
 207   0.0000       1.664779        45.3009 
 208   0.0000       1.681478        45.7553 
 209   0.0000       1.692158        46.0459 
 210   0.0000       1.708214        46.4829 
 211   0.0000       1.716761        46.7154 
 212   0.0000       1.730715        47.0951 
 213   0.0000       1.775587        48.3162 
 214   0.0000       1.792841        48.7857 
 215   0.0000       1.811781        49.3011 
 216   0.0000       1.814836        49.3842 
 217   0.0000       1.831077        49.8261 
 218   0.0000       1.853935        50.4481 
 219   0.0000       1.864831        50.7446 
 220   0.0000       1.909925        51.9717 
 221   0.0000       1.913561        52.0706 
 222   0.0000       1.926076        52.4112 
 223   0.0000       1.975405        53.7535 
 224   0.0000       1.978743        53.8443 
 225   0.0000       2.038428        55.4684 
 226   0.0000       2.116184        57.5843 
 227   0.0000       2.120909        57.7129 
 228   0.0000       2.126129        57.8549 
 229   0.0000       2.135991        58.1233 
 230   0.0000       2.141834        58.2823 
 231   0.0000       2.162793        58.8526 
 232   0.0000       2.165014        58.9130 
 233   0.0000       2.204093        59.9764 
 234   0.0000       2.224313        60.5266 
 235   0.0000       2.236709        60.8639 
 236   0.0000       2.247051        61.1454 
 237   0.0000       2.251807        61.2748 
 238   0.0000       2.259254        61.4774 
 239   0.0000       2.272396        61.8350 
 240   0.0000       2.286681        62.2238 
 241   0.0000       2.292010        62.3687 
 242   0.0000       2.302977        62.6672 
 243   0.0000       2.316265        63.0288 
 244   0.0000       2.329406        63.3864 
 245   0.0000       2.339754        63.6680 
 246   0.0000       2.345191        63.8159 
 247   0.0000       2.355113        64.0859 
 248   0.0000       2.379249        64.7427 
 249   0.0000       2.395047        65.1725 
 250   0.0000       2.401767        65.3554 
 251   0.0000       2.422954        65.9319 
 252   0.0000       2.430908        66.1484 
 253   0.0000       2.442920        66.4752 
 254   0.0000       2.453065        66.7513 
 255   0.0000       2.486566        67.6629 
 256   0.0000       2.498806        67.9960 
 257   0.0000       2.506421        68.2032 
 258   0.0000       2.515857        68.4599 
 259   0.0000       2.524798        68.7032 
 260   0.0000       2.547349        69.3169 
 261   0.0000       2.567285        69.8594 
 262   0.0000       2.588171        70.4277 
 263   0.0000       2.601620        70.7937 
 264   0.0000       2.602957        70.8301 
 265   0.0000       2.621551        71.3360 
 266   0.0000       2.641850        71.8884 
 267   0.0000       2.650925        72.1353 
 268   0.0000       2.678278        72.8796 
 269   0.0000       2.683930        73.0334 
 270   0.0000       2.714537        73.8663 
 271   0.0000       2.718877        73.9844 
 272   0.0000       2.724730        74.1437 
 273   0.0000       2.734844        74.4189 
 274   0.0000       2.763855        75.2083 
 275   0.0000       2.780147        75.6517 
 276   0.0000       2.797154        76.1144 
 277   0.0000       2.800338        76.2011 
 278   0.0000       2.807343        76.3917 
 279   0.0000       2.834020        77.1176 
 280   0.0000       2.840215        77.2862 
 281   0.0000       2.862402        77.8899 
 282   0.0000       2.887286        78.5670 
 283   0.0000       2.921252        79.4913 
 284   0.0000       2.938209        79.9527 
 285   0.0000       2.961120        80.5762 
 286   0.0000       2.968319        80.7721 
 287   0.0000       2.984700        81.2178 
 288   0.0000       2.997506        81.5663 
 289   0.0000       3.048842        82.9632 
 290   0.0000       3.585243        97.5594 
 291   0.0000       3.597785        97.9007 
 292   0.0000       3.610799        98.2548 
 293   0.0000       3.618129        98.4543 
 294   0.0000       3.626020        98.6690 
 295   0.0000       3.839197       104.4699 
 296   0.0000       3.859722       105.0284 
 297   0.0000       3.864833       105.1674 
 298   0.0000       3.873653       105.4074 
 299   0.0000       3.878561       105.5410 
 300   0.0000       3.893460       105.9464 
 301   0.0000       3.898820       106.0923 
 302   0.0000       3.902866       106.2024 
 303   0.0000       3.916781       106.5810 
 304   0.0000       3.936237       107.1104 
 305   0.0000       3.979530       108.2885 
 306   0.0000       3.985677       108.4558 
 307   0.0000       3.993743       108.6753 
 308   0.0000       4.002501       108.9136 
 309   0.0000       4.011097       109.1475 
 310   0.0000       4.017194       109.3134 
 311   0.0000       4.022396       109.4550 
 312   0.0000       4.034662       109.7887 
 313   0.0000       4.043775       110.0367 
 314   0.0000       4.063001       110.5599 
 315   0.0000       4.072510       110.8186 
 316   0.0000       4.086230       111.1920 
 317   0.0000       4.105103       111.7055 
 318   0.0000       4.126138       112.2779 
 319   0.0000       4.150132       112.9308 
 320   0.0000       4.216594       114.7394 
 321   0.0000       4.232948       115.1844 
 322   0.0000       4.253119       115.7333 
 323   0.0000       4.262696       115.9938 
 324   0.0000       4.270819       116.2149 
 325   0.0000       4.284417       116.5849 
 326   0.0000       4.299605       116.9982 
 327   0.0000       4.311944       117.3340 
 328   0.0000       4.323146       117.6388 
 329   0.0000       4.331249       117.8593 
 330   0.0000       4.340640       118.1148 
 331   0.0000       4.352881       118.4479 
 332   0.0000       4.357544       118.5748 
 333   0.0000       4.369248       118.8933 
 334   0.0000       4.374933       119.0480 
 335   0.0000       4.394951       119.5927 
 336   0.0000       4.399588       119.7189 
 337   0.0000       4.416862       120.1889 
 338   0.0000       4.424262       120.3903 
 339   0.0000       4.430857       120.5698 
 340   0.0000       4.436022       120.7103 
 341   0.0000       4.447845       121.0320 
 342   0.0000       4.476541       121.8129 
 343   0.0000       4.483380       121.9990 
 344   0.0000       4.509701       122.7152 
 345   0.0000       4.586097       124.7940 
 346   0.0000       4.612226       125.5051 
 347   0.0000       4.632018       126.0436 
 348   0.0000       4.649762       126.5265 
 349   0.0000       4.663972       126.9131 
 350   0.0000       4.744519       129.1049 
 351   0.0000       4.767729       129.7365 
 352   0.0000       4.772670       129.8709 
 353   0.0000       4.801249       130.6486 
 354   0.0000       4.805212       130.7565 
 355   0.0000       4.874339       132.6375 
 356   0.0000       4.885320       132.9363 
 357   0.0000       4.893892       133.1696 
 358   0.0000       4.903980       133.4441 
 359   0.0000       4.951119       134.7268 
 360   0.0000       4.955030       134.8332 
 361   0.0000       4.968229       135.1924 
 362   0.0000       5.003648       136.1562 
 363   0.0000       5.052201       137.4774 
 364   0.0000       5.060846       137.7126 
 365   0.0000       5.070412       137.9729 
 366   0.0000       5.085308       138.3783 
 367   0.0000       5.087678       138.4428 
 368   0.0000       5.094134       138.6184 
 369   0.0000       5.105289       138.9220 
 370   0.0000       5.140582       139.8824 
 371   0.0000       5.161822       140.4603 
 372   0.0000       5.195978       141.3898 
 373   0.0000       5.214479       141.8932 
 374   0.0000       5.223111       142.1281 
 375   0.0000       5.298728       144.1857 
 376   0.0000       5.340148       145.3128 
 377   0.0000       5.371090       146.1548 
 378   0.0000       5.402232       147.0022 
 379   0.0000       5.428813       147.7255 
 380   0.0000       5.568564       151.5283 
 381   0.0000       5.581816       151.8889 
 382   0.0000       5.611528       152.6974 
 383   0.0000       5.617251       152.8532 
 384   0.0000       5.654276       153.8607 
 385   0.0000       6.023835       163.9169 
 386   0.0000       6.041487       164.3972 
 387   0.0000       6.059188       164.8789 
 388   0.0000       6.065343       165.0464 
 389   0.0000       6.076896       165.3608 
 390   0.0000       6.176540       168.0722 
 391   0.0000       6.187954       168.3828 
 392   0.0000       6.189454       168.4236 
 393   0.0000       6.194790       168.5688 
 394   0.0000       6.199476       168.6963 
 395   0.0000       6.501976       176.9277 
 396   0.0000       6.509064       177.1206 
 397   0.0000       6.539205       177.9408 
 398   0.0000       6.551023       178.2624 
 399   0.0000       6.567874       178.7209 
 400   0.0000       6.574491       178.9010 
 401   0.0000       6.597412       179.5247 
 402   0.0000       6.651086       180.9853 
 403   0.0000       6.662989       181.3091 
 404   0.0000       6.710208       182.5940 
 405   0.0000       6.808556       185.2702 
 406   0.0000       6.828481       185.8124 
 407   0.0000       6.846172       186.2938 
 408   0.0000       6.854063       186.5085 
 409   0.0000       6.856121       186.5645 
 410   0.0000       6.884061       187.3248 
 411   0.0000       6.903300       187.8484 
 412   0.0000       6.906121       187.9251 
 413   0.0000       6.913049       188.1136 
 414   0.0000       6.929065       188.5495 
 415   0.0000       6.945692       189.0019 
 416   0.0000       6.956148       189.2864 
 417   0.0000       6.976490       189.8399 
 418   0.0000       6.983191       190.0223 
 419   0.0000       6.995914       190.3685 
 420   0.0000       7.011639       190.7964 
 421   0.0000       7.014758       190.8813 
 422   0.0000       7.041305       191.6036 
 423   0.0000       7.049271       191.8204 
 424   0.0000       7.055336       191.9855 
 425   0.0000       7.066257       192.2826 
 426   0.0000       7.083294       192.7462 
 427   0.0000       7.091665       192.9740 
 428   0.0000       7.123065       193.8285 
 429   0.0000       7.139853       194.2853 
 430   0.0000       7.146325       194.4614 
 431   0.0000       7.180713       195.3971 
 432   0.0000       7.197956       195.8663 
 433   0.0000       7.255760       197.4393 
 434   0.0000       7.262791       197.6306 
 435   0.0000       7.401938       201.4170 
 436   0.0000       7.404606       201.4896 
 437   0.0000       7.457259       202.9223 
 438   0.0000       7.473136       203.3544 
 439   0.0000       7.484100       203.6527 
 440   0.0000       7.637671       207.8316 
 441   0.0000       7.643722       207.9962 
 442   0.0000       7.646664       208.0763 
 443   0.0000       7.653462       208.2613 
 444   0.0000       7.654699       208.2949 
 445   0.0000       7.667300       208.6378 
 446   0.0000       7.685716       209.1390 
 447   0.0000       7.734239       210.4593 
 448   0.0000       7.748801       210.8556 
 449   0.0000       7.836534       213.2429 
 450   0.0000       8.547933       232.6011 
 451   0.0000       8.565283       233.0732 
 452   0.0000       8.578140       233.4231 
 453   0.0000       8.593510       233.8413 
 454   0.0000       8.637732       235.0446 
 455   0.0000      15.526077       422.4860 
 456   0.0000      16.148963       439.4356 
 457   0.0000      16.212447       441.1631 
 458   0.0000      17.120966       465.8852 
 459   0.0000      17.146286       466.5742 

                    ********************************
                    * MULLIKEN POPULATION ANALYSIS *
                    ********************************

-----------------------
MULLIKEN ATOMIC CHARGES
-----------------------
   0 O :   -0.391549
   1 O :   -0.386004
   2 O :   -0.378973
   3 O :   -0.402683
   4 O :   -0.383056
   5 H :    0.270523
   6 H :    0.274742
   7 H :    0.257947
   8 H :    0.277778
   9 H :    0.271910
  10 H :    0.116993
  11 H :    0.117948
  12 H :    0.121279
  13 H :    0.116526
  14 H :    0.116618
Sum of atomic charges:   -0.0000000

--------------------------------
MULLIKEN REDUCED ORBITAL CHARGES
--------------------------------
  0 O s       :     3.947706  s :     3.947706
      pz      :     1.410249  p :     4.434021
      px      :     1.556520
      py      :     1.467252
      dz2     :     0.001631  d :     0.009869
      dxz     :     0.000673
      dyz     :     0.001449
      dx2y2   :     0.002904
      dxy     :     0.003213
      f0      :    -0.000030  f :    -0.000047
      f+1     :    -0.000017
      f-1     :     0.000070
      f+2     :    -0.000029
      f-2     :     0.000104
      f+3     :    -0.000174
      f-3     :     0.000030
  1 O s       :     3.945268  s :     3.945268
      pz      :     1.393770  p :     4.430394
      px      :     1.386731
      py      :     1.649892
      dz2     :     0.001916  d :     0.010395
      dxz     :     0.001109
      dyz     :     0.001153
      dx2y2   :     0.006318
      dxy     :    -0.000102
      f0      :    -0.000038  f :    -0.000052
      f+1     :    -0.000053
      f-1     :     0.000098
      f+2     :     0.000042
      f-2     :     0.000024
      f+3     :    -0.000071
      f-3     :    -0.000055
  2 O s       :     3.952480  s :     3.952480
      pz      :     1.440872  p :     4.418371
      px      :     1.656398
      py      :     1.321101
      dz2     :     0.001651  d :     0.008216
      dxz     :     0.001103
      dyz     :     0.001036
      dx2y2   :     0.003529
      dxy     :     0.000897
      f0      :     0.000011  f :    -0.000094
      f+1     :     0.000120
      f-1     :    -0.000144
      f+2     :     0.000071
      f-2     :     0.000021
      f+3     :    -0.000003
      f-3     :    -0.000171
  3 O s       :     3.953056  s :     3.953056
      pz      :     1.598252  p :     4.439653
      px      :     1.298751
      py      :     1.542650
      dz2     :     0.002950  d :     0.009942
      dxz     :     0.000249
      dyz     :    -0.000106
      dx2y2   :     0.001207
      dxy     :     0.005642
      f0      :     0.000130  f :     0.000032
      f+1     :     0.000009
      f-1     :     0.000013
      f+2     :     0.000058
      f-2     :     0.000071
      f+3     :     0.000004
      f-3     :    -0.000253
  4 O s       :     3.945153  s :     3.945153
      pz      :     1.428525  p :     4.427969
      px      :     1.552708
      py      :     1.446737
      dz2     :     0.002028  d :     0.010004
      dxz     :     0.001880
      dyz     :     0.000394
      dx2y2   :    -0.000611
      dxy     :     0.006313
      f0      :    -0.000003  f :    -0.000070
      f+1     :     0.000117
      f-1     :    -0.000104
      f+2     :     0.000018
      f-2     :     0.000075
      f+3     :    -0.000151
      f-3     :    -0.000022
  5 H s       :     0.621608  s :     0.621608
      pz      :     0.040660  p :     0.057051
      px      :     0.022849
      py      :    -0.006459
      dz2     :     0.002745  d :     0.050819
      dxz     :     0.005907
      dyz     :     0.014167
      dx2y2   :     0.017296
      dxy     :     0.010704
  6 H s       :     0.620756  s :     0.620756
      pz      :     0.039651  p :     0.054138
      px      :    -0.030969
      py      :     0.045456
      dz2     :     0.001983  d :     0.050364
      dxz     :     0.017604
      dyz     :     0.001475
      dx2y2   :     0.003332
      dxy     :     0.025970
  7 H s       :     0.638367  s :     0.638367
      pz      :     0.039255  p :     0.056175
      px      :     0.056493
      py      :    -0.039573
      dz2     :     0.002121  d :     0.047511
      dxz     :     0.000156
      dyz     :     0.015630
      dx2y2   :     0.004705
      dxy     :     0.024899
  8 H s       :     0.615848  s :     0.615848
      pz      :     0.046525  p :     0.055755
      px      :    -0.028695
      py      :     0.037926
      dz2     :     0.001376  d :     0.050619
      dxz     :     0.021453
      dyz     :     0.002697
      dx2y2   :     0.016160
      dxy     :     0.008933
  9 H s       :     0.620274  s :     0.620274
      pz      :     0.041563  p :     0.058833
      px      :     0.023534
      py      :    -0.006264
      dz2     :     0.002389  d :     0.048983
      dxz     :     0.008010
      dyz     :     0.010995
      dx2y2   :     0.027178
      dxy     :     0.000411
 10 H s       :     0.750453  s :     0.750453
      pz      :     0.022555  p :     0.113880
      px      :     0.050134
      py      :     0.041191
      dz2     :     0.006785  d :     0.018675
      dxz     :     0.001334
      dyz     :     0.005074
      dx2y2   :     0.001783
      dxy     :     0.003699
 11 H s       :     0.748185  s :     0.748185
      pz      :     0.020052  p :     0.114965
      px      :     0.039360
      py      :     0.055553
      dz2     :     0.006295  d :     0.018902
      dxz     :     0.004501
      dyz     :     0.002852
      dx2y2   :     0.002833
      dxy     :     0.002421
 12 H s       :     0.747463  s :     0.747463
      pz      :     0.023240  p :     0.112203
      px      :     0.054886
      py      :     0.034077
      dz2     :     0.007709  d :     0.019055
      dxz     :     0.002957
      dyz     :     0.001986
      dx2y2   :     0.004511
      dxy     :     0.001892
 13 H s       :     0.752309  s :     0.752309
      pz      :     0.037101  p :     0.112531
      px      :     0.036001
      py      :     0.039429
      dz2     :     0.008203  d :     0.018634
      dxz     :     0.001019
      dyz     :     0.001449
      dx2y2   :     0.005763
      dxy     :     0.002200
 14 H s       :     0.747584  s :     0.747584
      pz      :     0.023719  p :     0.116697
      px      :     0.045785
      py      :     0.047192
      dz2     :     0.007282  d :     0.019101
      dxz     :     0.004509
      dyz     :     0.001221
      dx2y2   :     0.002424
      dxy     :     0.003665


                     *******************************
                     * LOEWDIN POPULATION ANALYSIS *
                     *******************************

----------------------
LOEWDIN ATOMIC CHARGES
----------------------
   0 O :    1.127356
   1 O :    1.127509
   2 O :    1.128708
   3 O :    1.125993
   4 O :    1.126473
   5 H :   -0.671392
   6 H :   -0.670682
   7 H :   -0.665469
   8 H :   -0.671844
   9 H :   -0.671664
  10 H :   -0.456290
  11 H :   -0.455238
  12 H :   -0.457501
  13 H :   -0.460156
  14 H :   -0.455803

-------------------------------
LOEWDIN REDUCED ORBITAL CHARGES
-------------------------------
  0 O s       :     2.950858  s :     2.950858
      pz      :     1.257263  p :     3.798699
      px      :     1.279926
      py      :     1.261511
      dz2     :     0.024515  d :     0.103962
      dxz     :     0.023867
      dyz     :     0.005663
      dx2y2   :     0.013645
      dxy     :     0.036271
      f0      :     0.000974  f :     0.019124
      f+1     :     0.005444
      f-1     :     0.003171
      f+2     :     0.001737
      f-2     :     0.000931
      f+3     :     0.005877
      f-3     :     0.000990
  1 O s       :     2.950838  s :     2.950838
      pz      :     1.254469  p :     3.798679
      px      :     1.236619
      py      :     1.307591
      dz2     :     0.026830  d :     0.103813
      dxz     :     0.005112
      dyz     :     0.022659
      dx2y2   :     0.029090
      dxy     :     0.020122
      f0      :     0.001339  f :     0.019161
      f+1     :     0.002770
      f-1     :     0.005897
      f+2     :     0.001746
      f-2     :     0.000607
      f+3     :     0.004767
      f-3     :     0.002036
  2 O s       :     2.950666  s :     2.950666
      pz      :     1.276717  p :     3.797946
      px      :     1.308056
      py      :     1.213173
      dz2     :     0.022387  d :     0.103535
      dxz     :     0.018628
      dyz     :     0.010733
      dx2y2   :     0.038948
      dxy     :     0.012839
      f0      :     0.000477  f :     0.019145
      f+1     :     0.005055
      f-1     :     0.003399
      f+2     :     0.000973
      f-2     :     0.002267
      f+3     :     0.002099
      f-3     :     0.004875
  3 O s       :     2.952491  s :     2.952491
      pz      :     1.322769  p :     3.799708
      px      :     1.196715
      py      :     1.280224
      dz2     :     0.014707  d :     0.102973
      dxz     :     0.013665
      dyz     :     0.014564
      dx2y2   :     0.030302
      dxy     :     0.029734
      f0      :     0.000791  f :     0.018835
      f+1     :     0.002368
      f-1     :     0.002774
      f+2     :     0.000562
      f-2     :     0.004456
      f+3     :     0.001750
      f-3     :     0.006133
  4 O s       :     2.951530  s :     2.951530
      pz      :     1.264949  p :     3.799173
      px      :     1.284117
      py      :     1.250107
      dz2     :     0.023069  d :     0.103648
      dxz     :     0.009618
      dyz     :     0.020386
      dx2y2   :     0.013275
      dxy     :     0.037300
      f0      :     0.000694  f :     0.019176
      f+1     :     0.004286
      f-1     :     0.004351
      f+2     :     0.000690
      f-2     :     0.002185
      f+3     :     0.003679
      f-3     :     0.003290
  5 H s       :     0.544653  s :     0.544653
      pz      :     0.139227  p :     0.623753
      px      :     0.194676
      py      :     0.289850
      dz2     :     0.055242  d :     0.502985
      dxz     :     0.049220
      dyz     :     0.106181
      dx2y2   :     0.142005
      dxy     :     0.150336
  6 H s       :     0.544818  s :     0.544818
      pz      :     0.137319  p :     0.623173
      px      :     0.335268
      py      :     0.150585
      dz2     :     0.052355  d :     0.502691
      dxz     :     0.143696
      dyz     :     0.012519
      dx2y2   :     0.147154
      dxy     :     0.146967
  7 H s       :     0.546834  s :     0.546834
      pz      :     0.140223  p :     0.619060
      px      :     0.140749
      py      :     0.338088
      dz2     :     0.048831  d :     0.499574
      dxz     :     0.001513
      dyz     :     0.156924
      dx2y2   :     0.150808
      dxy     :     0.141498
  8 H s       :     0.544994  s :     0.544994
      pz      :     0.145939  p :     0.624167
      px      :     0.311417
      py      :     0.166812
      dz2     :     0.050487  d :     0.502683
      dxz     :     0.135741
      dyz     :     0.020354
      dx2y2   :     0.146559
      dxy     :     0.149542
  9 H s       :     0.544732  s :     0.544732
      pz      :     0.139401  p :     0.623694
      px      :     0.227097
      py      :     0.257196
      dz2     :     0.054573  d :     0.503239
      dxz     :     0.059823
      dyz     :     0.095076
      dx2y2   :     0.144365
      dxy     :     0.149401
 10 H s       :     0.582573  s :     0.582573
      pz      :     0.223530  p :     0.531981
      px      :     0.169751
      py      :     0.138700
      dz2     :     0.107251  d :     0.341736
      dxz     :     0.089095
      dyz     :     0.079324
      dx2y2   :     0.027741
      dxy     :     0.038325
 11 H s       :     0.581746  s :     0.581746
      pz      :     0.226744  p :     0.531578
      px      :     0.131687
      py      :     0.173147
      dz2     :     0.110200  d :     0.341914
      dxz     :     0.082312
      dyz     :     0.089724
      dx2y2   :     0.027623
      dxy     :     0.032055
 12 H s       :     0.582984  s :     0.582984
      pz      :     0.221959  p :     0.532873
      px      :     0.174155
      py      :     0.136759
      dz2     :     0.105805  d :     0.341644
      dxz     :     0.081735
      dyz     :     0.074820
      dx2y2   :     0.045459
      dxy     :     0.033824
 13 H s       :     0.584374  s :     0.584374
      pz      :     0.202995  p :     0.533939
      px      :     0.152442
      py      :     0.178502
      dz2     :     0.082645  d :     0.341842
      dxz     :     0.062712
      dyz     :     0.068488
      dx2y2   :     0.074720
      dxy     :     0.053278
 14 H s       :     0.581548  s :     0.581548
      pz      :     0.221985  p :     0.532045
      px      :     0.151942
      py      :     0.158119
      dz2     :     0.105572  d :     0.342211
      dxz     :     0.078531
      dyz     :     0.085872
      dx2y2   :     0.036188
      dxy     :     0.036047


                      *****************************
                      * MAYER POPULATION ANALYSIS *
                      *****************************

  NA   - Mulliken gross atomic population
  ZA   - Total nuclear charge
  QA   - Mulliken gross atomic charge
  VA   - Mayer's total valence
  BVA  - Mayer's bonded valence
  FA   - Mayer's free valence

  ATOM       NA         ZA         QA         VA         BVA        FA
  0 O      8.3915     8.0000    -0.3915     1.9072     1.9072    -0.0000
  1 O      8.3860     8.0000    -0.3860     1.9011     1.9011     0.0000
  2 O      8.3790     8.0000    -0.3790     1.9008     1.9008     0.0000
  3 O      8.4027     8.0000    -0.4027     1.9026     1.9026    -0.0000
  4 O      8.3831     8.0000    -0.3831     1.9069     1.9069     0.0000
  5 H      0.7295     1.0000     0.2705     0.9749     0.9749    -0.0000
  6 H      0.7253     1.0000     0.2747     0.9685     0.9685     0.0000
  7 H      0.7421     1.0000     0.2579     0.9882     0.9882     0.0000
  8 H      0.7222     1.0000     0.2778     0.9660     0.9660     0.0000
  9 H      0.7281     1.0000     0.2719     0.9718     0.9718     0.0000
 10 H      0.8830     1.0000     0.1170     1.1188     1.1188    -0.0000
 11 H      0.8821     1.0000     0.1179     1.1201     1.1201    -0.0000
 12 H      0.8787     1.0000     0.1213     1.1058     1.1058    -0.0000
 13 H      0.8835     1.0000     0.1165     1.1148     1.1148    -0.0000
 14 H      0.8834     1.0000     0.1166     1.1244     1.1244     0.0000

  Mayer bond orders larger than 0.100000
B(  0-O ,  5-H ) :   0.8514 B(  0-O , 10-H ) :   1.0758 B(  1-O ,  6-H ) :   0.8505 
B(  1-O , 11-H ) :   1.0731 B(  2-O ,  7-H ) :   0.8628 B(  2-O , 12-H ) :   1.0695 
B(  3-O ,  8-H ) :   0.8454 B(  3-O , 13-H ) :   1.0812 B(  4-O ,  9-H ) :   0.8519 
B(  4-O , 14-H ) :   1.0759 

-------
TIMINGS
-------

Total SCF time: 0 days 0 hours 0 min 42 sec 

Total time                  ....      42.069 sec
Sum of individual times     ....      41.646 sec  ( 99.0%)

Fock matrix formation       ....      40.570 sec  ( 96.4%)
  XC integration            ....       2.528 sec  (  6.2% of F)
    Basis function eval.    ....       0.252 sec  ( 10.0% of XC)
    Density eval.           ....       0.587 sec  ( 23.2% of XC)
    XC-Functional eval.     ....       0.058 sec  (  2.3% of XC)
    XC-Potential eval.      ....       1.225 sec  ( 48.5% of XC)
Diagonalization             ....       0.242 sec  (  0.6%)
Density matrix formation    ....       0.029 sec  (  0.1%)
Population analysis         ....       0.032 sec  (  0.1%)
Initial guess               ....       0.226 sec  (  0.5%)
Orbital Transformation      ....       0.000 sec  (  0.0%)
Orbital Orthonormalization  ....       0.000 sec  (  0.0%)
DIIS solution               ....       0.098 sec  (  0.2%)
SOSCF solution              ....       0.179 sec  (  0.4%)
Grid generation             ....       0.270 sec  (  0.6%)


-------------------------------------------------------------------------------
                          DFT DISPERSION CORRECTION                            
                                                                               
                              DFTD3 V3.1  Rev 1                                
                          USING Becke-Johnson damping                          
-------------------------------------------------------------------------------
The TPSSH functional is recognized
Active option DFTDOPT                   ...         4   

molecular C6(AA) [au] = 1112.689386 


            DFT-D V3
 parameters
 s6 scaling factor         :     1.0000 
 a1 scaling factor         :     0.4529 
 s8 scaling factor         :     2.2382 
 a2 scaling factor         :     4.6550 
 ad hoc parameters k1-k3   :    16.0000     1.3333    -4.0000 

 Edisp/kcal,au: -4.262552868607  -0.006792809655 
 E6   /kcal   :  -2.354425561 
 E8   /kcal   :  -1.908127307 
 % E8         :  44.764894794 

-------------------------   ----------------
Dispersion correction           -0.006792810
-------------------------   ----------------


-------------------------   --------------------
FINAL SINGLE POINT ENERGY      -382.353400971799
-------------------------   --------------------



           ************************************************************
           *        Program running with 24 parallel MPI-processes    *
           *              working on a common directory               *
           ************************************************************
------------------------------------------------------------------------------
                         ORCA SCF GRADIENT CALCULATION
------------------------------------------------------------------------------

Gradient of the Kohn-Sham DFT energy:
Kohn-Sham wavefunction type      ... RKS
Hartree-Fock exchange scaling    ...    0.100
Number of operators              ...    1
Number of atoms                  ...   15
Basis set dimensions             ...  460
Integral neglect threshold       ... 2.5e-11
Integral primitive cutoff        ... 2.5e-12

Nuclear repulsion gradient       ... done
One Electron Gradient            ... done
Pre-screening matrix             ... done
Starting the two electron gradient:
Two electron gradient done
Exchange-correlation gradient    ... done
Dispersion correction            ... done

------------------
CARTESIAN GRADIENT
------------------

   1   O   :   -0.001452701   -0.007666410    0.002949076
   2   O   :   -0.007612652   -0.000929314   -0.003456464
   3   O   :   -0.003486667    0.006338239    0.003762061
   4   O   :    0.004906661    0.006065376    0.002834999
   5   O   :    0.006978257   -0.003599996   -0.003063256
   6   H   :    0.005234259    0.007300658    0.001904053
   7   H   :    0.008672653   -0.002505285   -0.001479741
   8   H   :    0.000234487   -0.008979387    0.000651361
   9   H   :   -0.008768331   -0.002783035    0.000695257
  10   H   :   -0.005351975    0.007219671   -0.001684686
  11   H   :   -0.002542310   -0.000257239   -0.003925123
  12   H   :   -0.001182985    0.002161332    0.003952544
  13   H   :    0.001869749    0.002242889   -0.003686930
  14   H   :    0.003052865   -0.002019803   -0.002955058
  15   H   :   -0.000634274   -0.002590563    0.003836510

Difference to translation invariance:
           :   -0.0000829639   -0.0000028669    0.0003346028

Norm of the cartesian gradient     ...    0.0295687683
RMS gradient                       ...    0.0044078517
MAX gradient                       ...    0.0089793867

-------
TIMINGS
-------

Total SCF gradient time            ...       16.886 sec

One electron gradient       ....       0.037 sec  (  0.2%)
Prescreening matrices       ....       0.054 sec  (  0.3%)
Two electron gradient       ....      15.355 sec  ( 90.9%)
XC gradient                 ....       1.054 sec  (  6.2%)
------------------------------------------------------------------------------
                         ORCA GEOMETRY RELAXATION STEP
------------------------------------------------------------------------------

Reading the OPT-File                    .... done
Getting information on internals        .... done
Copying old internal coords+grads       .... done
Making the new internal coordinates     .... (new redundants).... done
Validating the new internal coordinates .... (new redundants).... done
Calculating the B-matrix                .... done
Calculating the G,G- and P matrices     .... done
Transforming gradient to internals      .... done
Projecting the internal gradient        .... done
Number of atoms                         ....  15
Number of internal coordinates          ....  59
Current Energy                          ....  -382.353400972 Eh
Current gradient norm                   ....     0.029568768 Eh/bohr
Maximum allowed component of the step   ....  0.300
Current trust radius                    ....  0.300
Evaluating the initial hessian          ....  (Almloef) done
Projecting the Hessian                  .... done
Forming the augmented Hessian           .... done
Diagonalizing the augmented Hessian     .... done
Last element of RFO vector              ....  0.980476620
Lowest eigenvalues of augmented Hessian:
 -0.001215497  0.001622153  0.001764396  0.023680203  0.027193115
Length of the computed step             ....  0.200551133
The final length of the internal step   ....  0.200551133
Converting the step to cartesian space:
 Initial RMS(Int)=    0.0261095336
Transforming coordinates:
 Iter   0:  RMS(Cart)=    0.0325639569 RMS(Int)=    0.0260068349
 Iter   1:  RMS(Cart)=    0.0005276354 RMS(Int)=    0.0003772311
 Iter   2:  RMS(Cart)=    0.0000479676 RMS(Int)=    0.0000287732
 Iter   3:  RMS(Cart)=    0.0000214463 RMS(Int)=    0.0000122279
 Iter   4:  RMS(Cart)=    0.0000102820 RMS(Int)=    0.0000058889
 Iter   5:  RMS(Cart)=    0.0000049742 RMS(Int)=    0.0000028460
 Iter   6:  RMS(Cart)=    0.0000024093 RMS(Int)=    0.0000013777
 Iter   7:  RMS(Cart)=    0.0000011681 RMS(Int)=    0.0000006678
 Iter   8:  RMS(Cart)=    0.0000005668 RMS(Int)=    0.0000003241
 Iter   9:  RMS(Cart)=    0.0000002753 RMS(Int)=    0.0000001574
 Iter  10:  RMS(Cart)=    0.0000001337 RMS(Int)=    0.0000000765
 Iter  11:  RMS(Cart)=    0.0000000650 RMS(Int)=    0.0000000372
done
Storing new coordinates                 .... done

                                .--------------------.
          ----------------------|Geometry convergence|-------------------------
          Item                value                   Tolerance       Converged
          ---------------------------------------------------------------------
          RMS gradient        0.0027459246            0.0001000000      NO
          MAX gradient        0.0081556294            0.0003000000      NO
          RMS step            0.0261095336            0.0020000000      NO
          MAX step            0.0558798029            0.0040000000      NO
          ........................................................
          Max(Bonds)      0.0231      Max(Angles)    0.27
          Max(Dihed)        3.20      Max(Improp)    0.00
          ---------------------------------------------------------------------

The optimization has not yet converged - more geometry cycles are needed


    ---------------------------------------------------------------------------
                         Redundant Internal Coordinates
                            (Angstroem and degrees)

        Definition                    Value    dE/dq     Step     New-Value
    ----------------------------------------------------------------------------
     1. B(H   5,O   0)                0.9779 -0.008156  0.0089    0.9868   
     2. B(H   5,O   1)                1.7525  0.001086 -0.0188    1.7337   
     3. B(H   6,O   2)                1.7543  0.001172 -0.0212    1.7330   
     4. B(H   6,O   1)                0.9777 -0.008056  0.0087    0.9865   
     5. B(H   7,O   2)                0.9770 -0.007900  0.0085    0.9855   
     6. B(H   7,O   3)                1.7697  0.001171 -0.0231    1.7466   
     7. B(H   8,O   4)                1.7548  0.001187 -0.0218    1.7330   
     8. B(H   8,O   3)                0.9779 -0.008087  0.0087    0.9866   
     9. B(H   9,O   0)                1.7535  0.001109 -0.0194    1.7340   
    10. B(H   9,O   4)                0.9779 -0.008086  0.0088    0.9866   
    11. B(H  10,O   0)                0.9581 -0.004596  0.0046    0.9628   
    12. B(H  11,O   1)                0.9583 -0.004597  0.0046    0.9629   
    13. B(H  12,O   2)                0.9580 -0.004706  0.0047    0.9628   
    14. B(H  13,O   3)                0.9579 -0.004699  0.0047    0.9626   
    15. B(H  14,O   4)                0.9584 -0.004629  0.0047    0.9630   
    16. A(H   9,O   0,H  10)          119.31  0.000507   -0.26    119.06   
    17. A(H   5,O   0,H   9)          111.40  0.000419   -0.03    111.36   
    18. A(H   5,O   0,H  10)          105.42 -0.000550    0.06    105.48   
    19. A(H   5,O   1,H   6)          111.61  0.000383   -0.03    111.58   
    20. A(H   5,O   1,H  11)          117.92  0.000371   -0.21    117.71   
    21. A(H   6,O   1,H  11)          105.31 -0.000395    0.05    105.36   
    22. A(H   7,O   2,H  12)          105.55 -0.000599    0.13    105.68   
    23. A(H   6,O   2,H  12)          117.41  0.000423   -0.11    117.30   
    24. A(H   6,O   2,H   7)          112.50  0.000501   -0.05    112.44   
    25. A(H   7,O   3,H  13)          123.20  0.000507   -0.24    122.96   
    26. A(H   8,O   3,H  13)          105.33 -0.000674    0.10    105.43   
    27. A(H   7,O   3,H   8)          112.21  0.000350   -0.08    112.12   
    28. A(H   9,O   4,H  14)          105.11 -0.000598    0.08    105.18   
    29. A(H   8,O   4,H  14)          116.90  0.000529   -0.27    116.64   
    30. A(H   8,O   4,H   9)          111.57  0.000402   -0.06    111.52   
    31. L(O   0,H   5,O   1,H   9, 2) 181.67 -0.000132    0.05    181.72   
    32. L(O   0,H   5,O   1,H   9, 1) 175.60 -0.000500    0.26    175.86   
    33. L(O   1,H   6,O   2,H   5, 2) 178.78  0.000241   -0.06    178.72   
    34. L(O   1,H   6,O   2,H   5, 1) 176.84 -0.000353    0.18    177.03   
    35. A(O   2,H   7,O   3)          173.00 -0.000613    0.23    173.23   
    36. L(O   3,H   8,O   4,H   7, 2) 180.58 -0.000005    0.01    180.59   
    37. L(O   3,H   8,O   4,H   7, 1) 176.70 -0.000407    0.17    176.87   
    38. L(O   0,H   9,O   4,H   8, 2) 183.54  0.000023    0.02    183.56   
    39. L(O   0,H   9,O   4,H   8, 1) 176.18 -0.000347    0.20    176.38   
    40. D(H  11,O   1,O   0,H   9)    106.43 -0.000422    3.13    109.56   
    41. D(H   6,O   1,O   0,H   9)    -14.93 -0.000412    3.14    -11.79   
    42. D(H   6,O   1,O   0,H  10)    114.81  0.000044    2.88    117.69   
    43. D(H  11,O   1,O   0,H  10)   -123.83  0.000033    2.86   -120.97   
    44. D(H   7,O   2,O   1,H   5)     11.48  0.000226   -1.81      9.67   
    45. D(H  12,O   2,O   1,H  11)    120.81 -0.000057   -1.68    119.13   
    46. D(H   7,O   2,O   1,H  11)   -116.85 -0.000176   -1.58   -118.43   
    47. D(H  12,O   2,O   1,H   5)   -110.85  0.000344   -1.91   -112.77   
    48. D(H   9,O   4,O   3,H   7)     -3.77 -0.000160    2.09     -1.68   
    49. D(H   9,O   4,O   3,H  13)    132.12  0.000172    1.80    133.93   
    50. D(H   8,O   4,O   0,H  10)   -111.00  0.000359   -3.16   -114.16   
    51. D(H   8,O   4,O   0,H   5)     11.90  0.000329   -3.20      8.70   
    52. D(H  14,O   4,O   0,H  10)    122.80 -0.000049   -2.88    119.91   
    53. D(H  14,O   4,O   3,H  13)   -107.37  0.000041    1.72   -105.65   
    54. D(H  14,O   4,O   0,H   5)   -114.30 -0.000079   -2.93   -117.23   
    55. D(H  14,O   4,O   3,H   7)    116.74 -0.000290    2.00    118.74   
    56. D(O   2,H   7,O   3,H  13)   -152.60  0.000142   -0.03   -152.63   
    57. D(O   2,H   7,O   3,H   8)    -25.13 -0.000003   -0.21    -25.34   
    58. D(O   3,H   7,O   2,H   6)     19.53 -0.000131    0.04     19.57   
    59. D(O   3,H   7,O   2,H  12)    148.76  0.000307   -0.05    148.72   
[...]
     43      -0.026378   0.024738  -0.005973  -0.058158  -0.002882  -0.038167
     44      -0.036036   0.059432  -0.043582  -0.062211  -0.038463   0.003924
                 30         31         32         33         34         35    
      0      -0.008176  -0.001806   0.009828  -0.004602  -0.012409   0.015654
      1       0.032120  -0.000826  -0.028954   0.006429   0.024359   0.025822
      2      -0.026017   0.004042   0.022180  -0.003103  -0.018316  -0.002438
      3      -0.026389  -0.025040  -0.006791  -0.012230   0.018713   0.026431
      4      -0.012976  -0.015926  -0.006690  -0.008083   0.017150  -0.006588
      5      -0.026368  -0.022434  -0.003909  -0.012809   0.018083   0.001020
      6       0.008254   0.011354   0.020071  -0.025266   0.018810   0.002176
      7      -0.009510  -0.013896  -0.016292   0.020970  -0.011531  -0.024422
      8      -0.013219  -0.015775  -0.020535   0.022460  -0.014220   0.000939
      9      -0.001562   0.007430  -0.002932  -0.007564   0.001432  -0.025964
     10      -0.012691   0.025596  -0.031941  -0.026768  -0.011727  -0.010933
     11      -0.010802   0.016601  -0.026667  -0.016925  -0.011082  -0.005131
     12       0.024739  -0.031204  -0.002754  -0.024835  -0.022301  -0.019347
     13      -0.001300   0.001495  -0.003088  -0.004246  -0.003742   0.022696
     14      -0.019513   0.026107  -0.001337   0.016919   0.016722   0.003717
     15       0.288164  -0.002940  -0.285740   0.080349   0.291493  -0.242497
     16      -0.154868  -0.009477   0.147676  -0.050727  -0.150703  -0.411229
     17       0.342638  -0.034166  -0.321535   0.059990   0.284821   0.013921
     18       0.058353   0.063876   0.028841   0.025121  -0.059101  -0.419280
     19       0.255143   0.274548   0.088441   0.150043  -0.283523   0.094339
     20       0.353709   0.333962   0.083838   0.192107  -0.295863   0.005880
     21      -0.125280  -0.149010  -0.269012   0.309494  -0.243376  -0.044410
     22      -0.005819   0.004642  -0.018267  -0.000813  -0.012497   0.382884
     23       0.162997   0.221200   0.304557  -0.383317   0.249576  -0.036594
     24      -0.071216   0.143625  -0.199576  -0.170274  -0.086511   0.409660
     25       0.135811  -0.248405   0.350877   0.259152   0.149517   0.174814
     26       0.113041  -0.229901   0.306581   0.266877   0.118717   0.064075
     27      -0.172117   0.218634   0.043862   0.207270   0.190643   0.310609
     28      -0.174808   0.234496   0.025188   0.212109   0.203452  -0.356003
     29       0.250471  -0.339600   0.004349  -0.253791  -0.243182  -0.033589
     30      -0.114829   0.007267   0.105083  -0.024095  -0.096123   0.031964
     31      -0.343719   0.012020   0.323687  -0.073338  -0.287246   0.002927
     32       0.082986  -0.007599  -0.074971   0.015530   0.067296   0.021190
     33       0.335932   0.335030   0.097016   0.177868  -0.292694   0.010374
     34      -0.015031  -0.008442   0.000394  -0.005476   0.008369  -0.025333
     35       0.070662   0.064200   0.015431   0.035462  -0.055260  -0.022166
     36      -0.035394  -0.053917  -0.085932   0.110713  -0.075345  -0.018187
     37       0.143100   0.186473   0.287753  -0.343651   0.237202  -0.015391
     38       0.027022   0.031218   0.043933  -0.048375   0.032220   0.021760
     39       0.105124  -0.224474   0.274471   0.244855   0.100071  -0.027049
     40       0.069346  -0.180295   0.185886   0.202478   0.058041   0.017071
     41       0.047412  -0.080024   0.121190   0.083915   0.050277   0.015281
     42      -0.218975   0.285134   0.014467   0.221122   0.203570   0.005490
     43       0.159985  -0.209113  -0.011330  -0.164098  -0.152896   0.031581
     44       0.071502  -0.094833  -0.002951  -0.072233  -0.068723  -0.019706
                 36         37         38         39         40         41    
      0       0.014665   0.012346  -0.016242  -0.006099  -0.017680  -0.017084
      1       0.026564   0.022669  -0.029404  -0.011651  -0.000559   0.000433
      2      -0.001484  -0.002313   0.001910   0.001048  -0.015761  -0.015594
      3       0.031241  -0.023106   0.019483   0.032500   0.002728   0.011555
      4      -0.006274   0.004664  -0.004079  -0.006249  -0.007659  -0.033591
      5       0.001229   0.000050   0.000122   0.000898  -0.008713  -0.038474
      6      -0.000658  -0.005024   0.001067  -0.005889  -0.000732   0.005542
      7       0.005140   0.036335  -0.005369   0.041851  -0.000378   0.004500
      8      -0.000945  -0.001214  -0.000200  -0.001657   0.001068  -0.008685
      9       0.035315   0.008448   0.024093  -0.021796   0.006497  -0.005659
     10       0.016582   0.004039   0.011676  -0.010077  -0.004846   0.003958
     11       0.006720   0.002005   0.004870  -0.004393  -0.005861   0.004842
     12       0.011895  -0.023215  -0.025357   0.003541   0.011628  -0.003862
     13      -0.012762   0.024981   0.027062  -0.004193   0.040268  -0.014389
     14      -0.002720   0.003327   0.003938  -0.000360  -0.035881   0.012591
     15      -0.255305  -0.211846   0.290500   0.110802   0.007233  -0.002625
     16      -0.412893  -0.360602   0.469267   0.184845   0.025687   0.011642
     17       0.010324   0.009295  -0.008866  -0.002977  -0.009695  -0.011349
     18      -0.499556   0.364252  -0.316430  -0.526906  -0.013466  -0.050949
     19       0.114722  -0.092571   0.080434   0.127613   0.000048  -0.003528
     20       0.010652  -0.008919   0.009180   0.015675  -0.004255  -0.020258
     21       0.000413   0.062301  -0.012458   0.063872  -0.000298   0.004138
     22      -0.080246  -0.582918   0.086392  -0.685011  -0.000640  -0.016958
     23       0.012997   0.055681  -0.005661   0.067908   0.000215  -0.002173
     24      -0.581316  -0.139841  -0.407970   0.372384   0.002001   0.002865
     25      -0.239617  -0.066785  -0.167306   0.145386  -0.003187   0.004260
     26      -0.084529  -0.021123  -0.056797   0.051492  -0.005825   0.004305
     27      -0.190573   0.353991   0.393619  -0.057447   0.042126  -0.018363
     28       0.212278  -0.418715  -0.466132   0.072055  -0.021412   0.011832
     29       0.018967  -0.034959  -0.036524   0.005738  -0.024881   0.007811
     30       0.024438   0.033612  -0.030333  -0.016876   0.274611   0.272138
     31       0.011348  -0.000498  -0.014620  -0.001721  -0.020467  -0.018900
     32       0.016029   0.023661  -0.022491  -0.012295   0.259882   0.257071
     33       0.012735  -0.015254   0.014780   0.019696  -0.028773  -0.128620
     34      -0.032660   0.010642  -0.010103  -0.028589   0.121737   0.536897
     35      -0.029638   0.011666  -0.012945  -0.029924   0.143383   0.632573
     36      -0.007424   0.027172  -0.009415   0.021465   0.011581  -0.094617
     37       0.006158   0.024597  -0.002574   0.034277   0.006798  -0.053439
     38       0.003369  -0.035489   0.009394  -0.039728  -0.017381   0.140441
     39       0.040186   0.011824   0.031688  -0.028251  -0.104518   0.086301
     40      -0.018126  -0.017064  -0.013438   0.000459   0.080688  -0.067023
     41      -0.021523  -0.010533  -0.018589   0.013925   0.097209  -0.080343
     42      -0.011112  -0.001328  -0.002295   0.005452  -0.229251   0.080628
     43      -0.025213   0.032768   0.039876  -0.002960  -0.615040   0.215639
     44       0.018910  -0.018716  -0.025599   0.001047   0.595376  -0.208767
                  42         43         44    
      0       0.039252   0.000885   0.001932
      1       0.000498   0.000288  -0.000012
      2       0.034896   0.000715   0.001646
      3       0.005557   0.002772   0.002082
      4      -0.018091  -0.007370  -0.005031
      5      -0.020605  -0.008355  -0.005590
      6       0.003614  -0.018017  -0.025429
      7       0.003057  -0.012514  -0.018771
      8      -0.005780   0.027180   0.038475
      9       0.000853   0.033867  -0.024604
     10      -0.000767  -0.021973   0.016907
     11      -0.000903  -0.027581   0.020499
     12       0.003037  -0.002789   0.001380
     13       0.012355  -0.008408   0.003429
     14      -0.010520   0.007674  -0.003180
     15      -0.009669  -0.002612  -0.000784
     16      -0.049593  -0.004498  -0.002475
     17       0.020024   0.000000   0.000723
     18      -0.018461  -0.015283  -0.014206
     19      -0.004848   0.000318   0.001579
     20      -0.011751  -0.002904  -0.000652
     21       0.003109  -0.012548  -0.019662
     22      -0.011808   0.025814   0.051075
     23      -0.001833   0.010056   0.017523
     24       0.002573  -0.039034   0.018100
     25       0.000156  -0.034466   0.021911
     26      -0.000963  -0.023313   0.016553
     27       0.019097  -0.005945   0.000749
     28      -0.014520  -0.000081   0.002082
     29      -0.005656   0.005148  -0.001878
     30      -0.610045  -0.012322  -0.029055
     31       0.043636   0.001069   0.002162
     32      -0.576452  -0.011754  -0.027452
     33      -0.069987  -0.027717  -0.018242
     34       0.288070   0.116339   0.077621
     35       0.339323   0.136978   0.091322
     36      -0.062981   0.297425   0.421627
     37      -0.035869   0.171264   0.243404
     38       0.093617  -0.443260  -0.627726
     39      -0.016149  -0.495834   0.370158
     40       0.012226   0.385405  -0.287182
     41       0.014867   0.462158  -0.344171
     42      -0.067789   0.048530  -0.020158
     43      -0.180661   0.132070  -0.054976
     44       0.175054  -0.127291   0.052792


-----------
IR SPECTRUM  
-----------

 Mode    freq (cm**-1)   T**2         TX         TY         TZ
-------------------------------------------------------------------
   6:        12.38    4.345484  (  0.001436  -2.080990   0.122317)
   7:        33.47    0.125555  ( -0.304830   0.086308   0.158697)
   8:        74.18    0.090042  ( -0.070522   0.024014   0.290674)
   9:        77.22    3.761561  ( -0.071868  -0.060769  -1.937189)
  10:       196.39    0.085559  (  0.065172   0.232207  -0.165502)
  11:       228.61   54.274638  (  4.970475  -0.988874   5.347069)
  12:       249.14   59.274858  ( -1.574571   1.205478  -7.439248)
  13:       261.15   40.666245  ( -0.269504   6.185187   1.528750)
  14:       262.22   12.826418  (  3.521857  -0.641938   0.104184)
  15:       270.79  177.483796  ( 13.208870  -1.670467   0.468074)
  16:       304.13  240.421958  ( -4.588357 -14.810952   0.068089)
  17:       328.76    8.179783  ( -2.199429   1.444971   1.119979)
  18:       332.86    6.755254  ( -2.408525  -0.061253   0.974940)
  19:       336.28   43.362930  ( -6.524980   0.883752  -0.080894)
  20:       457.62   38.162387  ( -5.756393   2.216268   0.338361)
  21:       477.65    6.333239  ( -0.854645   2.255513  -0.717970)
  22:       490.62   27.961322  (  4.202630  -0.171932   3.204631)
  23:       495.04   26.208602  (  3.143616  -3.928458  -0.945250)
  24:       565.46   73.269919  (  2.719020   6.560663  -4.778551)
  25:       779.45   22.311888  ( -3.317276  -1.824441  -2.824709)
  26:       866.49  188.565823  (  0.562365   0.514092 -13.710772)
  27:       937.09   97.138670  ( -8.782607  -3.072923  -3.249867)
  28:       949.04   98.413594  ( -1.935728   9.313897  -2.813872)
  29:      1048.61    4.793245  ( -1.053474   0.977671   1.651544)
  30:      1656.47   76.780452  (  0.325930   0.490983   8.742606)
  31:      1670.46   16.925867  (  3.996640  -0.048243  -0.974888)
  32:      1681.50   73.179075  ( -0.597827   8.108539   2.659562)
  33:      1703.27   45.237078  (  6.712409  -0.166956  -0.390864)
  34:      1715.36    2.671981  ( -0.418928  -1.368228   0.790211)
  35:      3120.89   17.531539  (  0.599784  -4.143120  -0.079714)
  36:      3236.74  2686.366867  (-50.565997 -11.377448   0.022958)
  37:      3243.37  2634.870683  ( 11.694745 -49.980786  -0.156944)
  38:      3300.96    2.372948  ( -1.521866   0.224896  -0.079323)
  39:      3309.23   42.257177  ( -1.532809  -4.587912   4.342664)
  40:      3826.46   39.122551  (  1.018832  -3.416843   5.139039)
  41:      3827.64   46.910508  ( -1.091676   5.427685   4.032243)
  42:      3830.05   53.142522  ( -6.882533  -2.376611   0.353533)
  43:      3831.63   56.881378  ( -4.528531   6.022415  -0.322956)
  44:      3834.87   52.575411  (  5.027273   3.212925  -4.120565)

The first frequency considered to be a vibration is 6
The total number of vibrations considered is 39


--------------------------
THERMOCHEMISTRY AT 298.15K
--------------------------

Temperature         ... 298.15 K
Pressure            ... 1.00 atm
Total Mass          ... 90.07 AMU

Throughout the following assumptions are being made:
  (1) The electronic state is orbitally nondegenerate
  (2) There are no thermally accessible electronically excited states
  (3) Hindered rotations indicated by low frequency modes are not
      treated as such but are treated as vibrations and this may
      cause some error
  (4) All equations used are the standard statistical mechanics
      equations for an ideal gas
  (5) All vibrations are strictly harmonic

freq.      12.38  E(vib)   ...       0.57 
freq.      33.47  E(vib)   ...       0.55 
freq.      74.18  E(vib)   ...       0.49 
freq.      77.22  E(vib)   ...       0.49 
freq.     196.39  E(vib)   ...       0.36 
freq.     228.61  E(vib)   ...       0.32 
freq.     249.14  E(vib)   ...       0.31 
freq.     261.15  E(vib)   ...       0.30 
freq.     262.22  E(vib)   ...       0.29 
freq.     270.79  E(vib)   ...       0.29 
freq.     304.13  E(vib)   ...       0.26 
freq.     328.76  E(vib)   ...       0.24 
freq.     332.86  E(vib)   ...       0.24 
freq.     336.28  E(vib)   ...       0.24 
freq.     457.62  E(vib)   ...       0.16 
freq.     477.65  E(vib)   ...       0.15 
freq.     490.62  E(vib)   ...       0.15 
freq.     495.04  E(vib)   ...       0.14 
freq.     565.46  E(vib)   ...       0.11 
freq.     779.45  E(vib)   ...       0.05 
freq.     866.49  E(vib)   ...       0.04 
freq.     937.09  E(vib)   ...       0.03 
freq.     949.04  E(vib)   ...       0.03 
freq.    1048.61  E(vib)   ...       0.02 
freq.    1656.47  E(vib)   ...       0.00 
freq.    1670.46  E(vib)   ...       0.00 
freq.    1681.50  E(vib)   ...       0.00 
freq.    1703.27  E(vib)   ...       0.00 
freq.    1715.36  E(vib)   ...       0.00 
freq.    3120.89  E(vib)   ...       0.00 
freq.    3236.74  E(vib)   ...       0.00 
freq.    3243.37  E(vib)   ...       0.00 
freq.    3300.96  E(vib)   ...       0.00 
freq.    3309.23  E(vib)   ...       0.00 
freq.    3826.46  E(vib)   ...       0.00 
freq.    3827.64  E(vib)   ...       0.00 
freq.    3830.05  E(vib)   ...       0.00 
freq.    3831.63  E(vib)   ...       0.00 
freq.    3834.87  E(vib)   ...       0.00 

------------
INNER ENERGY
------------

The inner energy is: U= E(el) + E(ZPE) + E(vib) + E(rot) + E(trans)
    E(el)   - is the total energy from the electronic structure calculation
              = E(kin-el) + E(nuc-el) + E(el-el) + E(nuc-nuc)
    E(ZPE)  - the the zero temperature vibrational energy from the frequency calculation
    E(vib)  - the the finite temperature correction to E(ZPE) due to population
              of excited vibrational states
    E(rot)  - is the rotational thermal energy
    E(trans)- is the translational thermal energy

Summary of contributions to the inner energy U:
Electronic energy                ...   -382.35421613 Eh
Zero point energy                ...      0.12261908 Eh      76.94 kcal/mol
Thermal vibrational correction   ...      0.00929561 Eh       5.83 kcal/mol
Thermal rotational correction    ...      0.00141627 Eh       0.89 kcal/mol
Thermal translational correction ...      0.00141627 Eh       0.89 kcal/mol
-----------------------------------------------------------------------
Total thermal energy                   -382.21946889 Eh


Summary of corrections to the electronic energy:
(perhaps to be used in another calculation)
Total thermal correction                  0.01212816 Eh       7.61 kcal/mol
Non-thermal (ZPE) correction              0.12261908 Eh      76.94 kcal/mol
-----------------------------------------------------------------------
Total correction                          0.13474724 Eh      84.55 kcal/mol


--------
ENTHALPY
--------

The enthalpy is H = U + kB*T
                kB is Boltzmann's constant
Total free energy                 ...   -382.21946889 Eh 
Thermal Enthalpy correction       ...      0.00094421 Eh       0.59 kcal/mol
-----------------------------------------------------------------------
Total Enthalpy                    ...   -382.21852468 Eh


Note: Only C1 symmetry has been detected, increase convergence thresholds 
      if your molecule has a higher symmetry. Symmetry factor of 1.0 is   
      used for the rotational entropy correction. 
 

Note: Rotational entropy computed according to Herzberg 
Infrared and Raman Spectra, Chapter V,1, Van Nostrand Reinhold, 1945 
Point Group:  C1, Symmetry Number:   1  
Rotational constants in cm-1:     0.070257     0.069868     0.035541 

Vibrational entropy computed according to the QRRHO of S. Grimme
Chem.Eur.J. 2012 18 9955


-------
ENTROPY
-------

The entropy contributions are T*S = T*(S(el)+S(vib)+S(rot)+S(trans))
     S(el)   - electronic entropy
     S(vib)  - vibrational entropy
     S(rot)  - rotational entropy
     S(trans)- translational entropy
The entropies will be listed as mutliplied by the temperature to get
units of energy

Electronic entropy                ...      0.00000000 Eh      0.00 kcal/mol
Vibrational entropy               ...      0.01688355 Eh     10.59 kcal/mol
Rotational entropy                ...      0.01359619 Eh      8.53 kcal/mol
Translational entropy             ...      0.01872320 Eh     11.75 kcal/mol
-----------------------------------------------------------------------
Final entropy term                ...      0.04920294 Eh     30.88 kcal/mol

In case the symmetry of your molecule has not been determined correctly
or in case you have a reason to use a different symmetry number we print 
out the resulting rotational entropy values for sn=1,12 :
 --------------------------------------------------------
|  sn= 1 | S(rot)=       0.01359619 Eh      8.53 kcal/mol|
|  sn= 2 | S(rot)=       0.01294174 Eh      8.12 kcal/mol|
|  sn= 3 | S(rot)=       0.01255890 Eh      7.88 kcal/mol|
|  sn= 4 | S(rot)=       0.01228728 Eh      7.71 kcal/mol|
|  sn= 5 | S(rot)=       0.01207659 Eh      7.58 kcal/mol|
|  sn= 6 | S(rot)=       0.01190445 Eh      7.47 kcal/mol|
|  sn= 7 | S(rot)=       0.01175890 Eh      7.38 kcal/mol|
|  sn= 8 | S(rot)=       0.01163282 Eh      7.30 kcal/mol|
|  sn= 9 | S(rot)=       0.01152161 Eh      7.23 kcal/mol|
|  sn=10 | S(rot)=       0.01142214 Eh      7.17 kcal/mol|
|  sn=11 | S(rot)=       0.01133215 Eh      7.11 kcal/mol|
|  sn=12 | S(rot)=       0.01124999 Eh      7.06 kcal/mol|
 --------------------------------------------------------


-------------------
GIBBS FREE ENERGY
-------------------

The Gibbs free energy is G = H - T*S

Total enthalpy                    ...   -382.21852468 Eh 
Total entropy correction          ...     -0.04920294 Eh    -30.88 kcal/mol
-----------------------------------------------------------------------
Final Gibbs free energy         ...   -382.26772763 Eh

For completeness - the Gibbs free energy minus the electronic energy
G-E(el)                           ...      0.08648851 Eh     54.27 kcal/mol


Total Time for Numerical Frequencies  :      3224.759 sec

Timings for individual modules:

Sum of individual times         ...      603.266 sec (=  10.054 min)
GTO integral calculation        ...       11.078 sec (=   0.185 min)   1.8 %
SCF iterations                  ...      358.556 sec (=   5.976 min)  59.4 %
SCF Gradient evaluation         ...      232.871 sec (=   3.881 min)  38.6 %
Geometry relaxation             ...        0.761 sec (=   0.013 min)   0.1 %
                             ****ORCA TERMINATED NORMALLY****
TOTAL RUN TIME: 0 days 1 hours 3 minutes 21 seconds 549 msec
