
                                 *****************
                                 * O   R   C   A *
                                 *****************

           --- An Ab Initio, DFT and Semiempirical electronic structure package ---

                  #######################################################
                  #                        -***-                        #
                  #          Department of theory and spectroscopy      #
                  #               Directorship: Frank Neese             #
                  #        Max Planck Institute fuer Kohlenforschung    #
                  #                Kaiser Wilhelm Platz 1               #
                  #                 D-45470 Muelheim/Ruhr               #
                  #                      Germany                        #
                  #                                                     #
                  #                  All rights reserved                #
                  #                        -***-                        #
                  #######################################################


                         Program Version 4.2.0 -  RELEASE  -


 With contributions from (in alphabetic order):
   Daniel Aravena         : Magnetic Suceptibility
   Michael Atanasov       : Ab Initio Ligand Field Theory (pilot matlab implementation)
   Alexander A. Auer      : GIAO ZORA, VPT2
   Ute Becker             : Parallelization
   Giovanni Bistoni       : ED, misc. LED, open-shell LED, HFLED
   Martin Brehm           : Molecular dynamics
   Dmytro Bykov           : SCF Hessian
   Vijay G. Chilkuri      : MRCI spin determinant printing, contributions to CSF-ICE
   Dipayan Datta          : RHF DLPNO-CCSD density
   Achintya Kumar Dutta   : EOM-CC, STEOM-CC
   Dmitry Ganyushin       : Spin-Orbit,Spin-Spin,Magnetic field MRCI
   Miquel Garcia          : C-PCM Hessian, Gaussian charge scheme
   Yang Guo               : DLPNO-NEVPT2, CIM, IAO-localization
   Andreas Hansen         : Spin unrestricted coupled pair/coupled cluster methods
   Benjamin Helmich-Paris : CASSCF linear response (MC-RPA)
   Lee Huntington         : MR-EOM, pCC
   Robert Izsak           : Overlap fitted RIJCOSX, COSX-SCS-MP3, EOM
   Christian Kollmar      : KDIIS, OOCD, Brueckner-CCSD(T), CCSD density
   Simone Kossmann        : Meta GGA functionals, TD-DFT gradient, OOMP2, MP2 Hessian
   Martin Krupicka        : AUTO-CI
   Lucas Lang             : DCDCAS
   Dagmar Lenk            : GEPOL surface, SMD
   Dimitrios Liakos       : Extrapolation schemes; Compound Job, initial MDCI parallelization
   Dimitrios Manganas     : Further ROCIS development; embedding schemes
   Dimitrios Pantazis     : SARC Basis sets
   Taras Petrenko         : DFT Hessian,TD-DFT gradient, ASA, ECA, R-Raman, ABS, FL, XAS/XES, NRVS
   Peter Pinski           : DLPNO-MP2, DLPNO-MP2 Gradient
   Christoph Reimann      : Effective Core Potentials
   Marius Retegan         : Local ZFS, SOC
   Christoph Riplinger    : Optimizer, TS searches, QM/MM, DLPNO-CCSD(T), (RO)-DLPNO pert. Triples
   Tobias Risthaus        : Range-separated hybrids, TD-DFT gradient, RPA, STAB
   Michael Roemelt        : Original ROCIS implementation
   Masaaki Saitow         : Open-shell DLPNO-CCSD energy and density
   Barbara Sandhoefer     : DKH picture change effects
   Avijit Sen             : IP-ROCIS
   Kantharuban Sivalingam : CASSCF convergence, NEVPT2, FIC-MRCI
   Bernardo de Souza      : ESD, SOC TD-DFT
   Georgi Stoychev        : AutoAux, RI-MP2 NMR
   Willem Van den Heuvel  : Paramagnetic NMR
   Boris Wezisla          : Elementary symmetry handling
   Frank Wennmohs         : Technical directorship


 We gratefully acknowledge several colleagues who have allowed us to
 interface, adapt or use parts of their codes:
   Stefan Grimme, W. Hujo, H. Kruse,             : VdW corrections, initial TS optimization,
                  C. Bannwarth                     DFT functionals, gCP, sTDA/sTD-DF
   Ed Valeev, F. Pavosevic, A. Kumar             : LibInt (2-el integral package), F12 methods
   Garnet Chan, S. Sharma, J. Yang, R. Olivares  : DMRG
   Ulf Ekstrom                                   : XCFun DFT Library
   Mihaly Kallay                                 : mrcc  (arbitrary order and MRCC methods)
   Andreas Klamt, Michael Diedenhofen            : otool_cosmo (COSMO solvation model)
   Jiri Pittner, Ondrej Demel                    : Mk-CCSD
   Frank Weinhold                                : gennbo (NPA and NBO analysis)
   Christopher J. Cramer and Donald G. Truhlar   : smd solvation model
   Lars Goerigk                                  : TD-DFT with DH, B97 family of functionals
   V. Asgeirsson, H. Jonsson                     : NEB implementation
   FAccTs GmbH                                   : IRC, NEB, NEB-TS, Multilevel, MM, QM/MM, CI optimization
   S Lehtola, MJT Oliveira, MAL Marques          : LibXC Library


 Your calculation uses the libint2 library for the computation of 2-el integrals
 For citations please refer to: http://libint.valeyev.net

 Your ORCA version has been built with support for libXC version: 4.2.3
 For citations please refer to: https://tddft.org/programs/libxc/

 This ORCA versions uses:
   CBLAS   interface :  Fast vector & matrix operations
   LAPACKE interface :  Fast linear algebra routines
   SCALAPACK package :  Parallel linear algebra routines


Your calculation utilizes the atom-pairwise dispersion correction
with the Becke-Johnson damping scheme (D3BJ)
Cite in your paper:
S.Grimme, S.Ehrlich, L.Goerigk, J Comput Chem, (2011), 32, 1456–1465 
S.Grimme, J.Antony, S.Ehrlich and H.Krieg, J.Chem.Phys., 132, (2010), 154104 
   

----- Orbital basis set information -----
Your calculation utilizes the basis: aug-cc-pV(T+d)Z 
             Al - Ar: T.H. Dunning, Jr., K. A. Peterson and A. K. Wilson, J. Chem. Phys.
                      114, 9244 (2001)

----- AuxJK basis set information -----
Your calculation utilizes the auxiliary basis: def2/JK
   H-Ba, Hf-Rn: F. Weigend, J. Comput. Chem. 29, 167 (2008).

================================================================================
                                        WARNINGS
                       Please study these warnings very carefully!
================================================================================


WARNING: Geometry Optimization
  ===> : Switching off AutoStart
         For restart on a previous wavefunction, please use MOREAD

INFO   : the flag for use of LIBINT has been found!

================================================================================
                                       INPUT FILE
================================================================================
NAME = 06_H2O_6_ring.in
|  1> #
|  2> # 06_H2O_6_ring tpssh/aug-cc-pvt(+d)z
|  3> #
|  4> ! tpssh d3bj aug-cc-pvt(+d)z def2/jk grid4 nofinalgrid opt xyzfile numfreq
|  5> 
|  6> *xyz 0 1
|  7> O	0	2.709181	0.148099
|  8> H	-0.122498	3.233153	0.940879
|  9> H	-0.836919	2.216592	0.034772
| 10> O	-2.346219	-1.35459	0.148099
| 11> H	-1.501165	-1.833089	0.034772
| 12> H	-2.738743	-1.722662	0.940879
| 13> O	2.34622	1.354591	-0.148098
| 14> H	2.738743	1.722663	-0.940878
| 15> H	1.501165	1.83309	-0.034772
| 16> O	0	-2.709181	-0.148098
| 17> H	0.83692	-2.216591	-0.034772
| 18> H	0.122498	-3.233152	-0.940878
| 19> O	2.34622	-1.35459	0.148099
| 20> H	2.861241	-1.510489	0.940879
| 21> H	2.338085	-0.383502	0.034772
| 22> O	-2.346219	1.354591	-0.148098
| 23> H	-2.861241	1.51049	-0.940878
| 24> H	-2.338084	0.383502	-0.034772
| 25> *
| 26> 
| 27> %maxcore 5000
| 28> 
| 29> %pal
| 30> nprocs 24
| 31> end
| 32> 
| 33> 
| 34>                          ****END OF INPUT****
================================================================================

                       *****************************
                       * Geometry Optimization Run *
                       *****************************

Geometry optimization settings:
Update method            Update   .... BFGS
Choice of coordinates    CoordSys .... Z-matrix Internals
Initial Hessian          InHess   .... Almoef's Model

Convergence Tolerances:
Energy Change            TolE     ....  5.0000e-06 Eh
Max. Gradient            TolMAXG  ....  3.0000e-04 Eh/bohr
RMS Gradient             TolRMSG  ....  1.0000e-04 Eh/bohr
Max. Displacement        TolMAXD  ....  4.0000e-03 bohr
RMS Displacement         TolRMSD  ....  2.0000e-03 bohr
Strict Convergence                ....  False
------------------------------------------------------------------------------
                        ORCA OPTIMIZATION COORDINATE SETUP
------------------------------------------------------------------------------

The optimization will be done in new redundant internal coordinates
Making redundant internal coordinates   ...  (new redundants) done
Evaluating the initial hessian          ...  (Almloef) done
Evaluating the coordinates              ...  done
Calculating the B-matrix                .... done
Calculating the G-matrix                .... done
Diagonalizing the G-matrix              .... done
The first mode is                       ....   24
The number of degrees of freedom        ....   48

    -----------------------------------------------------------------
                    Redundant Internal Coordinates


    -----------------------------------------------------------------
         Definition                    Initial Value    Approx d2E/dq
    -----------------------------------------------------------------
      1. B(H   1,O   0)                  0.9582         0.523501   
      2. B(H   2,O   0)                  0.9777         0.487202   
      3. B(H   4,O   3)                  0.9777         0.487201   
      4. B(H   5,O   3)                  0.9582         0.523501   
      5. B(H   7,O   6)                  0.9582         0.523502   
      6. B(H   8,O   6)                  0.9777         0.487200   
      7. B(H   8,O   0)                  1.7477         0.028789   
      8. B(O   9,H   4)                  1.7477         0.028789   
      9. B(H  10,O   9)                  0.9777         0.487199   
     10. B(H  11,O   9)                  0.9582         0.523502   
     11. B(O  12,H  10)                  1.7477         0.028789   
     12. B(H  13,O  12)                  0.9581         0.523502   
     13. B(H  14,O  12)                  0.9777         0.487201   
     14. B(H  14,O   6)                  1.7477         0.028789   
     15. B(O  15,H   2)                  1.7477         0.028789   
     16. B(H  16,O  15)                  0.9582         0.523501   
     17. B(H  17,O   3)                  1.7477         0.028789   
     18. B(H  17,O  15)                  0.9777         0.487199   
     19. A(H   1,O   0,H   2)          105.1878         0.318783   
     20. A(H   2,O   0,H   8)          118.0709         0.208180   
     21. A(H   1,O   0,H   8)          118.0679         0.210135   
     22. L(O   0,H   2,O  15,H   8, 1) 180.8470         0.208180   
     23. L(O   0,H   2,O  15,H   8, 2) 179.2123         0.208180   
     24. A(H   4,O   3,H  17)          118.0709         0.208180   
     25. A(H   4,O   3,H   5)          105.1878         0.318783   
     26. A(H   5,O   3,H  17)          118.0679         0.210135   
     27. L(O   3,H   4,O   9,H  17, 1) 180.8470         0.208180   
     28. L(O   3,H   4,O   9,H  17, 2) 179.2123         0.208180   
     29. A(H   7,O   6,H   8)          105.1877         0.318783   
     30. A(H   8,O   6,H  14)          118.0709         0.208180   
     31. A(H   7,O   6,H  14)          118.0679         0.210135   
     32. L(O   0,H   8,O   6,H  14, 2) 179.2125         0.208180   
     33. L(O   0,H   8,O   6,H  14, 1) 180.8470         0.208180   
     34. A(H   4,O   9,H  11)          118.0679         0.210135   
     35. A(H   4,O   9,H  10)          118.0709         0.208180   
     36. A(H  10,O   9,H  11)          105.1878         0.318783   
     37. L(O   9,H  10,O  12,H   4, 2) 180.7875         0.208180   
     38. L(O   9,H  10,O  12,H   4, 1) 180.8470         0.208180   
     39. A(H  10,O  12,H  14)          118.0709         0.208180   
     40. A(H  10,O  12,H  13)          118.0679         0.210135   
     41. A(H  13,O  12,H  14)          105.1878         0.318783   
     42. L(O   6,H  14,O  12,H  10, 2) 180.7877         0.208180   
     43. L(O   6,H  14,O  12,H  10, 1) 180.8470         0.208180   
     44. A(H   2,O  15,H  17)          118.0709         0.208180   
     45. A(H   2,O  15,H  16)          118.0679         0.210135   
     46. A(H  16,O  15,H  17)          105.1877         0.318783   
     47. L(O   3,H  17,O  15,H   2, 2) 179.2125         0.208180   
     48. L(O   3,H  17,O  15,H   2, 1) 180.8470         0.208180   
     49. D(H  14,O   6,O   0,H   1)    107.3428         0.001501   
     50. D(H  14,O   6,O   0,H   2)    -21.3696         0.001501   
     51. D(H   7,O   6,O   0,H   1)   -118.5759         0.001501   
     52. D(H   7,O   6,O   0,H   2)    112.7117         0.001501   
     53. D(H  10,O   9,O   3,H  17)     21.3696         0.001501   
     54. D(H  10,O   9,O   3,H   5)   -112.7118         0.001501   
     55. D(H  11,O   9,O   3,H   5)    118.5759         0.001501   
     56. D(H  11,O   9,O   3,H  17)   -107.3427         0.001501   
     57. D(H  13,O  12,O   9,H   4)    107.3427         0.001501   
     58. D(H  13,O  12,O   9,H  11)   -118.5759         0.001501   
     59. D(H  10,O  12,O   6,H   8)     21.3696         0.001501   
     60. D(H  10,O  12,O   6,H   7)   -107.3427         0.001501   
     61. D(H  13,O  12,O   6,H   8)   -112.7118         0.001501   
     62. D(H  14,O  12,O   9,H  11)    112.7117         0.001501   
     63. D(H  13,O  12,O   6,H   7)    118.5760         0.001501   
     64. D(H  14,O  12,O   9,H   4)    -21.3696         0.001501   
     65. D(H   2,O  15,O   3,H   5)    107.3428         0.001501   
     66. D(H  16,O  15,O   3,H   5)   -118.5758         0.001501   
     67. D(H  16,O  15,O   3,H   4)    112.7118         0.001501   
     68. D(H  17,O  15,O   0,H   8)     21.3696         0.001501   
     69. D(H  17,O  15,O   0,H   1)   -112.7118         0.001501   
     70. D(H   2,O  15,O   3,H   4)    -21.3696         0.001501   
     71. D(H  16,O  15,O   0,H   8)   -107.3427         0.001501   
     72. D(H  16,O  15,O   0,H   1)    118.5759         0.001501   
    -----------------------------------------------------------------

Number of atoms                         .... 18
Number of degrees of freedom            .... 72

         *************************************************************
         *                GEOMETRY OPTIMIZATION CYCLE   1            *
         *************************************************************
---------------------------------
CARTESIAN COORDINATES (ANGSTROEM)
---------------------------------
  O      0.000000    2.709181    0.148099
  H     -0.122498    3.233153    0.940879
  H     -0.836919    2.216592    0.034772
  O     -2.346219   -1.354590    0.148099
  H     -1.501165   -1.833089    0.034772
  H     -2.738743   -1.722662    0.940879
  O      2.346220    1.354591   -0.148098
  H      2.738743    1.722663   -0.940878
  H      1.501165    1.833090   -0.034772
  O      0.000000   -2.709181   -0.148098
  H      0.836920   -2.216591   -0.034772
  H      0.122498   -3.233152   -0.940878
  O      2.346220   -1.354590    0.148099
  H      2.861241   -1.510489    0.940879
  H      2.338085   -0.383502    0.034772
  O     -2.346219    1.354591   -0.148098
  H     -2.861241    1.510490   -0.940878
  H     -2.338084    0.383502   -0.034772

----------------------------
CARTESIAN COORDINATES (A.U.)
----------------------------
  NO LB      ZA    FRAG     MASS         X           Y           Z
   0 O     8.0000    0    15.999    0.000000    5.119610    0.279867
   1 H     1.0000    0     1.008   -0.231488    6.109774    1.778004
   2 H     1.0000    0     1.008   -1.581548    4.188752    0.065710
   3 O     8.0000    0    15.999   -4.433711   -2.559804    0.279867
   4 H     1.0000    0     1.008   -2.836791   -3.464036    0.065710
   5 H     1.0000    0     1.008   -5.175474   -3.255359    1.778004
   6 O     8.0000    0    15.999    4.433713    2.559806   -0.279865
   7 H     1.0000    0     1.008    5.175474    3.255361   -1.778002
   8 H     1.0000    0     1.008    2.836791    3.464038   -0.065710
   9 O     8.0000    0    15.999    0.000000   -5.119610   -0.279865
  10 H     1.0000    0     1.008    1.581550   -4.188750   -0.065710
  11 H     1.0000    0     1.008    0.231488   -6.109772   -1.778002
  12 O     8.0000    0    15.999    4.433713   -2.559804    0.279867
  13 H     1.0000    0     1.008    5.406962   -2.854411    1.778004
  14 H     1.0000    0     1.008    4.418340   -0.724714    0.065710
  15 O     8.0000    0    15.999   -4.433711    2.559806   -0.279865
  16 H     1.0000    0     1.008   -5.406962    2.854412   -1.778002
  17 H     1.0000    0     1.008   -4.418338    0.724714   -0.065710

--------------------------------
INTERNAL COORDINATES (ANGSTROEM)
--------------------------------
 O      0   0   0     0.000000000000     0.00000000     0.00000000
 H      1   0   0     0.958150585862     0.00000000     0.00000000
 H      1   2   0     0.977711790054   105.18781736     0.00000000
 O      3   1   2     3.878681525474   142.52143282   247.82102299
 H      4   3   1     0.977711902784    96.36667252   339.89067784
 H      4   3   1     0.958150414163   122.49877551    92.44971867
 O      1   2   3     2.725324754834   118.15109370   225.39579020
 H      7   1   2     0.958150004495   104.57634301   241.42412740
 H      7   1   2     0.977712651193     0.63329954    76.51804352
 O      5   4   3     1.747705634994   179.01235653   141.32391584
 H     10   5   4     0.977713033960   118.07085768   232.04877984
 H     10   5   4     0.958150039005   118.06791005   103.67031070
 O     11  10   5     1.747705357502   179.01239509   210.64869987
 H     13  11  10     0.958149913658   118.06793374   256.33548560
 H     13  11  10     0.977712171806   118.07087130   127.95692155
 O      3   1   2     1.747705252868   179.01234488    15.13405571
 H     16   3   1     0.958150451174   118.06794621   103.66965614
 H     16   3   1     0.977713049121   118.07088973   232.04815538

---------------------------
INTERNAL COORDINATES (A.U.)
---------------------------
 O      0   0   0     0.000000000000     0.00000000     0.00000000
 H      1   0   0     1.810642202336     0.00000000     0.00000000
 H      1   2   0     1.847607521108   105.18781736     0.00000000
 O      3   1   2     7.329645843846   142.52143282   247.82102299
 H      4   3   1     1.847607734137    96.36667252   339.89067784
 H      4   3   1     1.810641877871   122.49877551    92.44971867
 O      1   2   3     5.150117412632   118.15109370   225.39579020
 H      7   1   2     1.810641103710   104.57634301   241.42412740
 H      7   1   2     1.847609148424     0.63329954    76.51804352
 O      5   4   3     3.302685012849   179.01235653   141.32391584
 H     10   5   4     1.847609871750   118.07085768   232.04877984
 H     10   5   4     1.810641168925   118.06791005   103.67031070
 O     11  10   5     3.302684488466   179.01239509   210.64869987
 H     13  11  10     1.810640932053   118.06793374   256.33548560
 H     13  11  10     1.847608242515   118.07087130   127.95692155
 O      3   1   2     3.302684290735   179.01234488    15.13405571
 H     16   3   1     1.810641947812   118.06794621   103.66965614
 H     16   3   1     1.847609900400   118.07088973   232.04815538

---------------------
BASIS SET INFORMATION
---------------------
There are 2 groups of distinct atoms

 Group   1 Type O   : 19s6p3d2f contracted to 5s4p3d2f pattern {88111/3111/111/11}
 Group   2 Type H   : 6s3p2d contracted to 4s3p2d pattern {3111/111/11}

Atom   0O    basis set group =>   1
Atom   1H    basis set group =>   2
Atom   2H    basis set group =>   2
Atom   3O    basis set group =>   1
Atom   4H    basis set group =>   2
Atom   5H    basis set group =>   2
Atom   6O    basis set group =>   1
Atom   7H    basis set group =>   2
Atom   8H    basis set group =>   2
Atom   9O    basis set group =>   1
Atom  10H    basis set group =>   2
Atom  11H    basis set group =>   2
Atom  12O    basis set group =>   1
Atom  13H    basis set group =>   2
Atom  14H    basis set group =>   2
Atom  15O    basis set group =>   1
Atom  16H    basis set group =>   2
Atom  17H    basis set group =>   2
----------------------------------
AUXILIARY/JK BASIS SET INFORMATION
----------------------------------
There are 2 groups of distinct atoms

 Group   1 Type O   : 14s10p6d2f1g contracted to 10s8p4d2f1g pattern {5111111111/31111111/3111/11/1}
 Group   2 Type H   : 4s2p2d contracted to 2s2p2d pattern {31/11/11}

Atom   0O    basis set group =>   1
Atom   1H    basis set group =>   2
Atom   2H    basis set group =>   2
Atom   3O    basis set group =>   1
Atom   4H    basis set group =>   2
Atom   5H    basis set group =>   2
Atom   6O    basis set group =>   1
Atom   7H    basis set group =>   2
Atom   8H    basis set group =>   2
Atom   9O    basis set group =>   1
Atom  10H    basis set group =>   2
Atom  11H    basis set group =>   2
Atom  12O    basis set group =>   1
Atom  13H    basis set group =>   2
Atom  14H    basis set group =>   2
Atom  15O    basis set group =>   1
Atom  16H    basis set group =>   2
Atom  17H    basis set group =>   2


           ************************************************************
           *        Program running with 24 parallel MPI-processes    *
           *              working on a common directory               *
           ************************************************************
------------------------------------------------------------------------------
                           ORCA GTO INTEGRAL CALCULATION
------------------------------------------------------------------------------

                         BASIS SET STATISTICS AND STARTUP INFO

 # of primitive gaussian shells          ...  312
 # of primitive gaussian functions       ...  696
 # of contracted shells                  ...  192
 # of contracted basis functions         ...  552
 Highest angular momentum                ...    3
 Maximum contraction depth               ...    8
 Integral package used                   ... LIBINT
 Integral threshhold            Thresh   ...  2.500e-11
 Primitive cut-off              TCut     ...  2.500e-12


------------------------------ INTEGRAL EVALUATION ----------------------------


 * One electron integrals 
 Pre-screening matrix                    ... done
 Shell pair data                         ... done (   0.004 sec)



           ************************************************************
           *        Program running with 24 parallel MPI-processes    *
           *              working on a common directory               *
           ************************************************************
-------------------------------------------------------------------------------
                                 ORCA SCF
-------------------------------------------------------------------------------

------------
SCF SETTINGS
------------
Hamiltonian:
 Density Functional     Method          .... DFT(GTOs)
 Exchange Functional    Exchange        .... TPSS
 Correlation Functional Correlation     .... TPSS
 LDA part of GGA corr.  LDAOpt          .... PW91-LDA
 Gradients option       PostSCFGGA      .... off
 Hybrid DFT is turned on
   Fraction HF Exchange ScalHFX         ....  0.100000
   Scaling of DF-GGA-X  ScalDFX         ....  0.900000
   Scaling of DF-GGA-C  ScalDFC         ....  1.000000
   Scaling of DF-LDA-C  ScalLDAC        ....  1.000000
   Perturbative correction              ....  0.000000
   Density functional embedding theory  .... OFF
   NL short-range parameter             ....  5.200000


General Settings:
 Integral files         IntName         .... 06_H2O_6_ring
 Hartree-Fock type      HFTyp           .... RHF
 Total Charge           Charge          ....    0
 Multiplicity           Mult            ....    1
 Number of Electrons    NEL             ....   60
 Basis Dimension        Dim             ....  552
 Nuclear Repulsion      ENuc            ....    268.3173414251 Eh

Convergence Acceleration:
 DIIS                   CNVDIIS         .... on
   Start iteration      DIISMaxIt       ....    12
   Startup error        DIISStart       ....  0.200000
   # of expansion vecs  DIISMaxEq       ....     5
   Bias factor          DIISBfac        ....   1.050
   Max. coefficient     DIISMaxC        ....  10.000
 Newton-Raphson         CNVNR           .... off
 SOSCF                  CNVSOSCF        .... on
   Start iteration      SOSCFMaxIt      ....   150
   Startup grad/error   SOSCFStart      ....  0.003300
 Level Shifting         CNVShift        .... on
   Level shift para.    LevelShift      ....    0.2500
   Turn off err/grad.   ShiftErr        ....    0.0010
 Zerner damping         CNVZerner       .... off
 Static damping         CNVDamp         .... on
   Fraction old density DampFac         ....    0.7000
   Max. Damping (<1)    DampMax         ....    0.9800
   Min. Damping (>=0)   DampMin         ....    0.0000
   Turn off err/grad.   DampErr         ....    0.1000
 Fernandez-Rico         CNVRico         .... off

SCF Procedure:
 Maximum # iterations   MaxIter         ....   125
 SCF integral mode      SCFMode         .... Direct
   Integral package                     .... LIBINT
 Reset frequency        DirectResetFreq ....    20
 Integral Threshold     Thresh          ....  2.500e-11 Eh
 Primitive CutOff       TCut            ....  2.500e-12 Eh

Convergence Tolerance:
 Convergence Check Mode ConvCheckMode   .... Total+1el-Energy
 Convergence forced     ConvForced      .... 0
 Energy Change          TolE            ....  1.000e-08 Eh
 1-El. energy change                    ....  1.000e-05 Eh
 Orbital Gradient       TolG            ....  1.000e-05
 Orbital Rotation angle TolX            ....  1.000e-05
 DIIS Error             TolErr          ....  5.000e-07


Diagonalization of the overlap matrix:
Smallest eigenvalue                        ... 1.234e-04
Time for diagonalization                   ...    0.038 sec
Threshold for overlap eigenvalues          ... 1.000e-08
Number of eigenvalues below threshold      ... 0
Time for construction of square roots      ...    0.043 sec
Total time needed                          ...    0.082 sec

-------------------
DFT GRID GENERATION
-------------------

General Integration Accuracy     IntAcc      ...  4.670
Radial Grid Type                 RadialGrid  ... Gauss-Chebyshev
Angular Grid (max. acc.)         AngularGrid ... Lebedev-302
Angular grid pruning method      GridPruning ... 3 (G Style)
Weight generation scheme         WeightScheme... Becke
Basis function cutoff            BFCut       ...    1.0000e-11
Integration weight cutoff        WCut        ...    1.0000e-14
Grids for H and He will be reduced by one unit

# of grid points (after initial pruning)     ...  78000 (   0.0 sec)
# of grid points (after weights+screening)   ...  72996 (   0.0 sec)
nearest neighbour list constructed           ...    0.0 sec
Grid point re-assignment to atoms done       ...    0.0 sec
Grid point division into batches done        ...    0.2 sec
Reduced shell lists constructed in    0.2 sec

Total number of grid points                  ...    72996
Total number of batches                      ...     1152
Average number of points per batch           ...       63
Average number of grid points per atom       ...     4055
Average number of shells per batch           ...   118.88 (61.92%)
Average number of basis functions per batch  ...   321.94 (58.32%)
Average number of large shells per batch     ...    92.53 (77.84%)
Average number of large basis fcns per batch ...   241.84 (75.12%)
Maximum spatial batch extension              ...   8.81, 11.76,  8.41 au
Average spatial batch extension              ...   0.07,  0.08,  0.06 au

Time for grid setup =    0.308 sec

------------------------------
INITIAL GUESS: MODEL POTENTIAL
------------------------------
Loading Hartree-Fock densities                     ... done
Calculating cut-offs                               ... done
Setting up the integral package                    ... done
Initializing the effective Hamiltonian             ... done
Starting the Coulomb interaction                   ... done (   0.0 sec)
Reading the grid                                   ... done
Mapping shells                                     ... done
Starting the XC term evaluation                    ... done (   0.1 sec)
  promolecular density results
     # of electrons  =     59.994135459
     EX              =    -52.455319726
     EC              =     -1.938781405
     EX+EC           =    -54.394101131
Transforming the Hamiltonian                       ... done (   0.0 sec)
Diagonalizing the Hamiltonian                      ... done (   0.0 sec)
Back transforming the eigenvectors                 ... done (   0.0 sec)
Now organizing SCF variables                       ... done
                      ------------------
                      INITIAL GUESS DONE (   0.6 sec)
                      ------------------
--------------
SCF ITERATIONS
--------------
ITER       Energy         Delta-E        Max-DP      RMS-DP      [F,P]     Damp
               ***  Starting incremental Fock matrix formation  ***
  0   -458.3688699308   0.000000000000 0.07747637  0.00089190  0.3174434 0.7000
  1   -458.5956527481  -0.226782817238 0.03844429  0.00051496  0.1251389 0.7000
                               ***Turning on DIIS***
  2   -458.6654224424  -0.069769694341 0.04809336  0.00063661  0.0281140 0.0000
  3   -458.7920714682  -0.126649025816 0.01490283  0.00026504  0.0715851 0.0000
  4   -458.8167095395  -0.024638071291 0.00316442  0.00006151  0.0132740 0.0000
                      *** Initiating the SOSCF procedure ***
                           *** Shutting down DIIS ***
                      *** Re-Reading the Fockian *** 
                      *** Removing any level shift *** 
ITER      Energy       Delta-E        Grad      Rot      Max-DP    RMS-DP
  5   -458.81791604  -0.0012065048  0.000869  0.000869  0.001466  0.000022
               *** Restarting incremental Fock matrix formation ***
  6   -458.81798730  -0.0000712601  0.000412  0.001112  0.001518  0.000025
  7   -458.81798979  -0.0000024855  0.000304  0.000170  0.000551  0.000010
  8   -458.81799651  -0.0000067235  0.000042  0.000152  0.000308  0.000005
  9   -458.81799679  -0.0000002729  0.000012  0.000030  0.000046  0.000001
                  ***Gradient check signals convergence***
              ***Rediagonalizing the Fockian in SOSCF/NRSCF***

               *****************************************************
               *                     SUCCESS                       *
               *           SCF CONVERGED AFTER  10 CYCLES          *
               *****************************************************


----------------
TOTAL SCF ENERGY
----------------

Total Energy       :         -458.81799680 Eh          -12485.07242 eV

Components:
Nuclear Repulsion  :          268.31734143 Eh            7301.28605 eV
Electronic Energy  :         -727.13533822 Eh          -19786.35847 eV
One Electron Energy:        -1165.05318909 Eh          -31702.70901 eV
Two Electron Energy:          437.91785087 Eh           11916.35054 eV

Virial components:
Potential Energy   :         -915.46003564 Eh          -24910.93402 eV
Kinetic Energy     :          456.64203884 Eh           12425.86160 eV
Virial Ratio       :            2.00476513


DFT components:
N(Alpha)           :       30.000008016520 electrons
N(Beta)            :       30.000008016520 electrons
N(Total)           :       60.000016033041 electrons
E(X)               :      -48.698816513841 Eh       
E(C)               :       -1.995230533060 Eh       
E(XC)              :      -50.694047046901 Eh       
DFET-embed. en.    :        0.000000000000 Eh       

---------------
SCF CONVERGENCE
---------------

  Last Energy change         ...   -1.0146e-08  Tolerance :   1.0000e-08
  Last MAX-Density change    ...    4.2961e-06  Tolerance :   1.0000e-07
  Last RMS-Density change    ...    6.9262e-08  Tolerance :   5.0000e-09
  Last Orbital Gradient      ...    1.3299e-06  Tolerance :   1.0000e-05
  Last Orbital Rotation      ...    1.8553e-06  Tolerance :   1.0000e-05

             **** THE GBW FILE WAS UPDATED (06_H2O_6_ring.gbw) ****
             **** DENSITY FILE WAS UPDATED (06_H2O_6_ring.scfp) ****
             **** ENERGY FILE WAS UPDATED (06_H2O_6_ring.en.tmp) ****
             **** THE GBW FILE WAS UPDATED (06_H2O_6_ring.gbw) ****
             **** DENSITY FILE WAS UPDATED (06_H2O_6_ring.scfp) ****
----------------
ORBITAL ENERGIES
----------------

  NO   OCC          E(Eh)            E(eV) 
   0   2.0000     -19.048924      -518.3476 
   1   2.0000     -19.048922      -518.3475 
   2   2.0000     -19.048921      -518.3475 
   3   2.0000     -19.048917      -518.3474 
   4   2.0000     -19.048917      -518.3474 
   5   2.0000     -19.048915      -518.3473 
   6   2.0000      -0.998231       -27.1633 
   7   2.0000      -0.992180       -26.9986 
   8   2.0000      -0.992180       -26.9986 
   9   2.0000      -0.979514       -26.6539 
  10   2.0000      -0.979514       -26.6539 
  11   2.0000      -0.972838       -26.4723 
  12   2.0000      -0.510118       -13.8810 
  13   2.0000      -0.509228       -13.8568 
  14   2.0000      -0.509033       -13.8515 
  15   2.0000      -0.509032       -13.8515 
  16   2.0000      -0.508638       -13.8407 
  17   2.0000      -0.508637       -13.8407 
  18   2.0000      -0.414261       -11.2726 
  19   2.0000      -0.395350       -10.7580 
  20   2.0000      -0.395350       -10.7580 
  21   2.0000      -0.354392        -9.6435 
  22   2.0000      -0.354391        -9.6435 
  23   2.0000      -0.332950        -9.0600 
  24   2.0000      -0.294094        -8.0027 
  25   2.0000      -0.294093        -8.0027 
  26   2.0000      -0.293331        -7.9819 
  27   2.0000      -0.293330        -7.9819 
  28   2.0000      -0.293187        -7.9780 
  29   2.0000      -0.292458        -7.9582 
  30   0.0000      -0.024559        -0.6683 
  31   0.0000      -0.004883        -0.1329 
  32   0.0000      -0.004869        -0.1325 
  33   0.0000       0.011951         0.3252 
  34   0.0000       0.016182         0.4403 
  35   0.0000       0.016191         0.4406 
  36   0.0000       0.043916         1.1950 
  37   0.0000       0.043954         1.1960 
  38   0.0000       0.044395         1.2081 
  39   0.0000       0.055519         1.5107 
  40   0.0000       0.066312         1.8045 
  41   0.0000       0.066335         1.8051 
  42   0.0000       0.077835         2.1180 
  43   0.0000       0.088480         2.4077 
  44   0.0000       0.088522         2.4088 
  45   0.0000       0.092132         2.5071 
  46   0.0000       0.106334         2.8935 
  47   0.0000       0.106340         2.8937 
  48   0.0000       0.107677         2.9300 
  49   0.0000       0.119175         3.2429 
  50   0.0000       0.127103         3.4586 
  51   0.0000       0.127208         3.4615 
  52   0.0000       0.134709         3.6656 
  53   0.0000       0.134808         3.6683 
  54   0.0000       0.140928         3.8349 
  55   0.0000       0.143440         3.9032 
  56   0.0000       0.155865         4.2413 
  57   0.0000       0.155917         4.2427 
  58   0.0000       0.173818         4.7298 
  59   0.0000       0.173929         4.7329 
  60   0.0000       0.176038         4.7902 
  61   0.0000       0.181311         4.9337 
  62   0.0000       0.181337         4.9344 
  63   0.0000       0.181810         4.9473 
  64   0.0000       0.193913         5.2766 
  65   0.0000       0.193964         5.2780 
  66   0.0000       0.203310         5.5323 
  67   0.0000       0.212552         5.7838 
  68   0.0000       0.212607         5.7853 
  69   0.0000       0.212783         5.7901 
  70   0.0000       0.212810         5.7908 
  71   0.0000       0.222110         6.0439 
  72   0.0000       0.242467         6.5979 
  73   0.0000       0.258720         7.0401 
  74   0.0000       0.271522         7.3885 
  75   0.0000       0.271576         7.3899 
  76   0.0000       0.279152         7.5961 
  77   0.0000       0.279184         7.5970 
  78   0.0000       0.290038         7.8923 
  79   0.0000       0.297882         8.1058 
  80   0.0000       0.300497         8.1769 
  81   0.0000       0.300608         8.1800 
  82   0.0000       0.305160         8.3038 
  83   0.0000       0.311279         8.4703 
  84   0.0000       0.311355         8.4724 
  85   0.0000       0.311644         8.4803 
  86   0.0000       0.329654         8.9703 
  87   0.0000       0.329808         8.9745 
  88   0.0000       0.333048         9.0627 
  89   0.0000       0.333152         9.0655 
  90   0.0000       0.344796         9.3824 
  91   0.0000       0.347552         9.4574 
  92   0.0000       0.348028         9.4703 
  93   0.0000       0.348154         9.4738 
  94   0.0000       0.354410         9.6440 
  95   0.0000       0.354578         9.6486 
  96   0.0000       0.370347        10.0777 
  97   0.0000       0.377627        10.2758 
  98   0.0000       0.377706        10.2779 
  99   0.0000       0.378158        10.2902 
 100   0.0000       0.378306        10.2942 
 101   0.0000       0.381495        10.3810 
 102   0.0000       0.401695        10.9307 
 103   0.0000       0.401784        10.9331 
 104   0.0000       0.410887        11.1808 
 105   0.0000       0.411003        11.1840 
 106   0.0000       0.415677        11.3112 
 107   0.0000       0.415860        11.3161 
 108   0.0000       0.478113        13.0101 
 109   0.0000       0.478313        13.0156 
 110   0.0000       0.481860        13.1121 
 111   0.0000       0.486149        13.2288 
 112   0.0000       0.489617        13.3232 
 113   0.0000       0.489704        13.3255 
 114   0.0000       0.495686        13.4883 
 115   0.0000       0.538979        14.6664 
 116   0.0000       0.549159        14.9434 
 117   0.0000       0.549277        14.9466 
 118   0.0000       0.557935        15.1822 
 119   0.0000       0.558032        15.1848 
 120   0.0000       0.584524        15.9057 
 121   0.0000       0.589658        16.0454 
 122   0.0000       0.597796        16.2669 
 123   0.0000       0.597844        16.2682 
 124   0.0000       0.628782        17.1100 
 125   0.0000       0.629084        17.1182 
 126   0.0000       0.632675        17.2160 
 127   0.0000       0.639016        17.3885 
 128   0.0000       0.639054        17.3895 
 129   0.0000       0.651738        17.7347 
 130   0.0000       0.671308        18.2672 
 131   0.0000       0.671498        18.2724 
 132   0.0000       0.688871        18.7451 
 133   0.0000       0.688940        18.7470 
 134   0.0000       0.693424        18.8690 
 135   0.0000       0.694502        18.8984 
 136   0.0000       0.694670        18.9029 
 137   0.0000       0.705570        19.1995 
 138   0.0000       0.717275        19.5180 
 139   0.0000       0.741584        20.1795 
 140   0.0000       0.741634        20.1809 
 141   0.0000       0.756805        20.5937 
 142   0.0000       0.759996        20.6805 
 143   0.0000       0.760125        20.6841 
 144   0.0000       0.777608        21.1598 
 145   0.0000       0.782171        21.2840 
 146   0.0000       0.782427        21.2909 
 147   0.0000       0.801507        21.8101 
 148   0.0000       0.801603        21.8127 
 149   0.0000       0.810125        22.0446 
 150   0.0000       0.819128        22.2896 
 151   0.0000       0.819198        22.2915 
 152   0.0000       0.830535        22.6000 
 153   0.0000       0.830662        22.6035 
 154   0.0000       0.835927        22.7467 
 155   0.0000       0.839112        22.8334 
 156   0.0000       0.850324        23.1385 
 157   0.0000       0.854353        23.2481 
 158   0.0000       0.854379        23.2488 
 159   0.0000       0.872849        23.7514 
 160   0.0000       0.872959        23.7544 
 161   0.0000       0.876480        23.8502 
 162   0.0000       0.880906        23.9707 
 163   0.0000       0.890778        24.2393 
 164   0.0000       0.890833        24.2408 
 165   0.0000       0.904685        24.6177 
 166   0.0000       0.904783        24.6204 
 167   0.0000       0.912358        24.8265 
 168   0.0000       0.915869        24.9220 
 169   0.0000       0.920580        25.0502 
 170   0.0000       0.920702        25.0536 
 171   0.0000       0.928941        25.2778 
 172   0.0000       0.928966        25.2785 
 173   0.0000       0.929708        25.2986 
 174   0.0000       0.929887        25.3035 
 175   0.0000       0.942181        25.6380 
 176   0.0000       0.944843        25.7105 
 177   0.0000       0.987808        26.8796 
 178   0.0000       0.987951        26.8835 
 179   0.0000       0.992079        26.9958 
 180   0.0000       0.998480        27.1700 
 181   0.0000       1.025693        27.9105 
 182   0.0000       1.042215        28.3601 
 183   0.0000       1.042285        28.3620 
 184   0.0000       1.055472        28.7209 
 185   0.0000       1.055590        28.7241 
 186   0.0000       1.060702        28.8632 
 187   0.0000       1.071959        29.1695 
 188   0.0000       1.074419        29.2364 
 189   0.0000       1.096719        29.8433 
 190   0.0000       1.096920        29.8487 
 191   0.0000       1.101864        29.9832 
 192   0.0000       1.101927        29.9850 
 193   0.0000       1.116859        30.3913 
 194   0.0000       1.116893        30.3922 
 195   0.0000       1.119682        30.4681 
 196   0.0000       1.132388        30.8138 
 197   0.0000       1.132495        30.8167 
 198   0.0000       1.139457        31.0062 
 199   0.0000       1.142081        31.0776 
 200   0.0000       1.179333        32.0913 
 201   0.0000       1.179607        32.0987 
 202   0.0000       1.184209        32.2240 
 203   0.0000       1.184453        32.2306 
 204   0.0000       1.216746        33.1093 
 205   0.0000       1.219083        33.1729 
 206   0.0000       1.231791        33.5187 
 207   0.0000       1.231948        33.5230 
 208   0.0000       1.247677        33.9510 
 209   0.0000       1.261101        34.3163 
 210   0.0000       1.261285        34.3213 
 211   0.0000       1.261340        34.3228 
 212   0.0000       1.261759        34.3342 
 213   0.0000       1.261779        34.3347 
 214   0.0000       1.300727        35.3946 
 215   0.0000       1.300980        35.4015 
 216   0.0000       1.307309        35.5737 
 217   0.0000       1.307346        35.5747 
 218   0.0000       1.318926        35.8898 
 219   0.0000       1.372660        37.3520 
 220   0.0000       1.372745        37.3543 
 221   0.0000       1.376401        37.4538 
 222   0.0000       1.380185        37.5567 
 223   0.0000       1.380293        37.5597 
 224   0.0000       1.380520        37.5659 
 225   0.0000       1.406021        38.2598 
 226   0.0000       1.418329        38.5947 
 227   0.0000       1.418426        38.5973 
 228   0.0000       1.427532        38.8451 
 229   0.0000       1.446296        39.3557 
 230   0.0000       1.456710        39.6391 
 231   0.0000       1.456833        39.6425 
 232   0.0000       1.467572        39.9347 
 233   0.0000       1.467749        39.9395 
 234   0.0000       1.542062        41.9616 
 235   0.0000       1.542143        41.9639 
 236   0.0000       1.553853        42.2825 
 237   0.0000       1.562040        42.5053 
 238   0.0000       1.562238        42.5107 
 239   0.0000       1.592917        43.3455 
 240   0.0000       1.615568        43.9618 
 241   0.0000       1.615646        43.9640 
 242   0.0000       1.618745        44.0483 
 243   0.0000       1.619000        44.0552 
 244   0.0000       1.632004        44.4091 
 245   0.0000       1.663554        45.2676 
 246   0.0000       1.665510        45.3208 
 247   0.0000       1.665725        45.3267 
 248   0.0000       1.669451        45.4281 
 249   0.0000       1.669559        45.4310 
 250   0.0000       1.692426        46.0532 
 251   0.0000       1.697254        46.1846 
 252   0.0000       1.714356        46.6500 
 253   0.0000       1.714497        46.6538 
 254   0.0000       1.752498        47.6879 
 255   0.0000       1.765705        48.0473 
 256   0.0000       1.765877        48.0519 
 257   0.0000       1.780543        48.4510 
 258   0.0000       1.818587        49.4863 
 259   0.0000       1.836522        49.9743 
 260   0.0000       1.836647        49.9777 
 261   0.0000       1.850201        50.3465 
 262   0.0000       1.850439        50.3530 
 263   0.0000       1.856679        50.5228 
 264   0.0000       1.907651        51.9098 
 265   0.0000       1.907676        51.9105 
 266   0.0000       1.944773        52.9200 
 267   0.0000       1.944802        52.9208 
 268   0.0000       1.949045        53.0362 
 269   0.0000       2.000893        54.4471 
 270   0.0000       2.060370        56.0655 
 271   0.0000       2.103163        57.2300 
 272   0.0000       2.103233        57.2319 
 273   0.0000       2.114483        57.5380 
 274   0.0000       2.114574        57.5405 
 275   0.0000       2.127131        57.8822 
 276   0.0000       2.183660        59.4204 
 277   0.0000       2.183669        59.4207 
 278   0.0000       2.190022        59.5935 
 279   0.0000       2.198826        59.8331 
 280   0.0000       2.219185        60.3871 
 281   0.0000       2.240737        60.9736 
 282   0.0000       2.247428        61.1556 
 283   0.0000       2.247568        61.1594 
 284   0.0000       2.248014        61.1716 
 285   0.0000       2.248040        61.1723 
 286   0.0000       2.250726        61.2454 
 287   0.0000       2.289605        62.3033 
 288   0.0000       2.289648        62.3045 
 289   0.0000       2.296002        62.4774 
 290   0.0000       2.328872        63.3718 
 291   0.0000       2.328917        63.3731 
 292   0.0000       2.329398        63.3861 
 293   0.0000       2.329489        63.3886 
 294   0.0000       2.348088        63.8947 
 295   0.0000       2.356503        64.1237 
 296   0.0000       2.356653        64.1278 
 297   0.0000       2.365318        64.3636 
 298   0.0000       2.396811        65.2205 
 299   0.0000       2.418268        65.8044 
 300   0.0000       2.418407        65.8082 
 301   0.0000       2.418604        65.8136 
 302   0.0000       2.429828        66.1190 
 303   0.0000       2.430018        66.1242 
 304   0.0000       2.461172        66.9719 
 305   0.0000       2.461399        66.9781 
 306   0.0000       2.468166        67.1622 
 307   0.0000       2.502154        68.0871 
 308   0.0000       2.502301        68.0911 
 309   0.0000       2.538865        69.0860 
 310   0.0000       2.544234        69.2321 
 311   0.0000       2.544369        69.2358 
 312   0.0000       2.546484        69.2934 
 313   0.0000       2.559672        69.6522 
 314   0.0000       2.559775        69.6550 
 315   0.0000       2.602339        70.8132 
 316   0.0000       2.610800        71.0435 
 317   0.0000       2.615545        71.1726 
 318   0.0000       2.615638        71.1751 
 319   0.0000       2.627873        71.5080 
 320   0.0000       2.628020        71.5121 
 321   0.0000       2.664767        72.5120 
 322   0.0000       2.691786        73.2472 
 323   0.0000       2.691950        73.2517 
 324   0.0000       2.717959        73.9594 
 325   0.0000       2.719671        74.0060 
 326   0.0000       2.719830        74.0103 
 327   0.0000       2.772318        75.4386 
 328   0.0000       2.772421        75.4414 
 329   0.0000       2.775671        75.5298 
 330   0.0000       2.775796        75.5332 
 331   0.0000       2.779879        75.6443 
 332   0.0000       2.809367        76.4468 
 333   0.0000       2.847520        77.4849 
 334   0.0000       2.847608        77.4873 
 335   0.0000       2.856231        77.7220 
 336   0.0000       2.871168        78.1285 
 337   0.0000       2.879121        78.3449 
 338   0.0000       2.879256        78.3485 
 339   0.0000       2.903969        79.0210 
 340   0.0000       2.904066        79.0237 
 341   0.0000       2.912028        79.2403 
 342   0.0000       2.957083        80.4663 
 343   0.0000       2.957304        80.4723 
 344   0.0000       3.017193        82.1020 
 345   0.0000       3.017286        82.1045 
 346   0.0000       3.050253        83.0016 
 347   0.0000       3.073792        83.6421 
 348   0.0000       3.572995        97.2261 
 349   0.0000       3.573007        97.2265 
 350   0.0000       3.576992        97.3349 
 351   0.0000       3.580198        97.4222 
 352   0.0000       3.595353        97.8345 
 353   0.0000       3.595374        97.8351 
 354   0.0000       3.862074       105.0924 
 355   0.0000       3.862146       105.0943 
 356   0.0000       3.862385       105.1008 
 357   0.0000       3.862403       105.1013 
 358   0.0000       3.870821       105.3304 
 359   0.0000       3.880942       105.6058 
 360   0.0000       3.902046       106.1801 
 361   0.0000       3.902074       106.1808 
 362   0.0000       3.902824       106.2012 
 363   0.0000       3.919199       106.6468 
 364   0.0000       3.947485       107.4165 
 365   0.0000       3.947571       107.4189 
 366   0.0000       3.971271       108.0638 
 367   0.0000       3.980814       108.3234 
 368   0.0000       3.986220       108.4706 
 369   0.0000       3.986254       108.4715 
 370   0.0000       4.007064       109.0378 
 371   0.0000       4.007091       109.0385 
 372   0.0000       4.019212       109.3683 
 373   0.0000       4.019288       109.3704 
 374   0.0000       4.022803       109.4660 
 375   0.0000       4.031287       109.6969 
 376   0.0000       4.031326       109.6980 
 377   0.0000       4.058291       110.4317 
 378   0.0000       4.074651       110.8769 
 379   0.0000       4.093345       111.3856 
 380   0.0000       4.093380       111.3865 
 381   0.0000       4.118381       112.0669 
 382   0.0000       4.118439       112.0684 
 383   0.0000       4.208814       114.5276 
 384   0.0000       4.209432       114.5445 
 385   0.0000       4.213627       114.6586 
 386   0.0000       4.213632       114.6587 
 387   0.0000       4.239449       115.3613 
 388   0.0000       4.261578       115.9634 
 389   0.0000       4.261614       115.9644 
 390   0.0000       4.281633       116.5092 
 391   0.0000       4.305044       117.1462 
 392   0.0000       4.312446       117.3476 
 393   0.0000       4.312586       117.3514 
 394   0.0000       4.324743       117.6823 
 395   0.0000       4.324777       117.6832 
 396   0.0000       4.372633       118.9854 
 397   0.0000       4.372733       118.9881 
 398   0.0000       4.381271       119.2204 
 399   0.0000       4.381341       119.2223 
 400   0.0000       4.382656       119.2581 
 401   0.0000       4.383715       119.2869 
 402   0.0000       4.413333       120.0929 
 403   0.0000       4.416675       120.1838 
 404   0.0000       4.419759       120.2678 
 405   0.0000       4.419828       120.2696 
 406   0.0000       4.420185       120.2793 
 407   0.0000       4.420231       120.2806 
 408   0.0000       4.448112       121.0393 
 409   0.0000       4.448135       121.0399 
 410   0.0000       4.476039       121.7992 
 411   0.0000       4.495968       122.3415 
 412   0.0000       4.496058       122.3440 
 413   0.0000       4.514372       122.8423 
 414   0.0000       4.590202       124.9057 
 415   0.0000       4.602326       125.2357 
 416   0.0000       4.602430       125.2385 
 417   0.0000       4.606837       125.3584 
 418   0.0000       4.606902       125.3602 
 419   0.0000       4.696759       127.8053 
 420   0.0000       4.753849       129.3588 
 421   0.0000       4.760213       129.5320 
 422   0.0000       4.760260       129.5333 
 423   0.0000       4.776045       129.9628 
 424   0.0000       4.817597       131.0935 
 425   0.0000       4.817644       131.0948 
 426   0.0000       4.870956       132.5454 
 427   0.0000       4.903249       133.4242 
 428   0.0000       4.903268       133.4247 
 429   0.0000       4.907549       133.5412 
 430   0.0000       4.907588       133.5423 
 431   0.0000       4.910682       133.6265 
 432   0.0000       4.923251       133.9685 
 433   0.0000       4.982380       135.5774 
 434   0.0000       4.982443       135.5792 
 435   0.0000       4.990835       135.8075 
 436   0.0000       5.063361       137.7811 
 437   0.0000       5.063400       137.7821 
 438   0.0000       5.084175       138.3474 
 439   0.0000       5.095046       138.6432 
 440   0.0000       5.096890       138.6934 
 441   0.0000       5.096910       138.6940 
 442   0.0000       5.111530       139.0918 
 443   0.0000       5.111612       139.0940 
 444   0.0000       5.122037       139.3777 
 445   0.0000       5.161404       140.4490 
 446   0.0000       5.161424       140.4495 
 447   0.0000       5.228243       142.2677 
 448   0.0000       5.228278       142.2687 
 449   0.0000       5.264800       143.2625 
 450   0.0000       5.407383       147.1424 
 451   0.0000       5.407962       147.1581 
 452   0.0000       5.407985       147.1587 
 453   0.0000       5.423083       147.5696 
 454   0.0000       5.423096       147.5700 
 455   0.0000       5.436823       147.9435 
 456   0.0000       5.608337       152.6106 
 457   0.0000       5.608421       152.6129 
 458   0.0000       5.613161       152.7419 
 459   0.0000       5.613217       152.7434 
 460   0.0000       5.622461       152.9949 
 461   0.0000       5.635931       153.3615 
 462   0.0000       5.991256       163.0304 
 463   0.0000       6.047777       164.5684 
 464   0.0000       6.047847       164.5703 
 465   0.0000       6.076990       165.3633 
 466   0.0000       6.078169       165.3954 
 467   0.0000       6.078208       165.3965 
 468   0.0000       6.187001       168.3569 
 469   0.0000       6.188183       168.3890 
 470   0.0000       6.188258       168.3911 
 471   0.0000       6.191967       168.4920 
 472   0.0000       6.192029       168.4937 
 473   0.0000       6.206337       168.8830 
 474   0.0000       6.514774       177.2760 
 475   0.0000       6.521418       177.4568 
 476   0.0000       6.521451       177.4577 
 477   0.0000       6.556672       178.4161 
 478   0.0000       6.573619       178.8773 
 479   0.0000       6.573686       178.8791 
 480   0.0000       6.602567       179.6650 
 481   0.0000       6.602661       179.6675 
 482   0.0000       6.613842       179.9718 
 483   0.0000       6.698272       182.2692 
 484   0.0000       6.698294       182.2698 
 485   0.0000       6.757947       183.8931 
 486   0.0000       6.817144       185.5039 
 487   0.0000       6.845557       186.2771 
 488   0.0000       6.845587       186.2779 
 489   0.0000       6.851077       186.4273 
 490   0.0000       6.854347       186.5163 
 491   0.0000       6.854384       186.5173 
 492   0.0000       6.885883       187.3744 
 493   0.0000       6.899190       187.7365 
 494   0.0000       6.901171       187.7904 
 495   0.0000       6.901198       187.7911 
 496   0.0000       6.909218       188.0094 
 497   0.0000       6.909262       188.0106 
 498   0.0000       6.913296       188.1204 
 499   0.0000       6.951756       189.1669 
 500   0.0000       6.951794       189.1679 
 501   0.0000       6.966976       189.5810 
 502   0.0000       7.008283       190.7051 
 503   0.0000       7.015856       190.9112 
 504   0.0000       7.015921       190.9129 
 505   0.0000       7.019779       191.0179 
 506   0.0000       7.019810       191.0187 
 507   0.0000       7.058468       192.0707 
 508   0.0000       7.058483       192.0711 
 509   0.0000       7.068087       192.3324 
 510   0.0000       7.085400       192.8035 
 511   0.0000       7.085464       192.8053 
 512   0.0000       7.107541       193.4060 
 513   0.0000       7.116736       193.6562 
 514   0.0000       7.116774       193.6573 
 515   0.0000       7.163829       194.9377 
 516   0.0000       7.189089       195.6251 
 517   0.0000       7.189105       195.6255 
 518   0.0000       7.234468       196.8599 
 519   0.0000       7.264258       197.6705 
 520   0.0000       7.264348       197.6730 
 521   0.0000       7.264871       197.6872 
 522   0.0000       7.350685       200.0223 
 523   0.0000       7.413610       201.7346 
 524   0.0000       7.413637       201.7353 
 525   0.0000       7.471270       203.3036 
 526   0.0000       7.471298       203.3044 
 527   0.0000       7.487496       203.7451 
 528   0.0000       7.626667       207.5321 
 529   0.0000       7.640264       207.9022 
 530   0.0000       7.640322       207.9037 
 531   0.0000       7.652325       208.2303 
 532   0.0000       7.652372       208.2316 
 533   0.0000       7.666140       208.6063 
 534   0.0000       7.678068       208.9309 
 535   0.0000       7.678123       208.9324 
 536   0.0000       7.680293       208.9914 
 537   0.0000       7.752052       210.9441 
 538   0.0000       7.752098       210.9453 
 539   0.0000       7.816361       212.6940 
 540   0.0000       8.542106       232.4425 
 541   0.0000       8.543065       232.4686 
 542   0.0000       8.543144       232.4708 
 543   0.0000       8.588747       233.7117 
 544   0.0000       8.591257       233.7800 
 545   0.0000       8.591287       233.7808 
 546   0.0000      15.549177       423.1146 
 547   0.0000      16.012644       435.7262 
 548   0.0000      16.012680       435.7272 
 549   0.0000      16.885864       459.4877 
 550   0.0000      16.885893       459.4885 
 551   0.0000      17.345867       472.0050 

                    ********************************
                    * MULLIKEN POPULATION ANALYSIS *
                    ********************************

-----------------------
MULLIKEN ATOMIC CHARGES
-----------------------
   0 O :   -0.389266
   1 H :    0.122555
   2 H :    0.266999
   3 O :   -0.388938
   4 H :    0.266813
   5 H :    0.121839
   6 O :   -0.388939
   7 H :    0.121837
   8 H :    0.266815
   9 O :   -0.389267
  10 H :    0.266999
  11 H :    0.122555
  12 O :   -0.389625
  13 H :    0.122037
  14 H :    0.267587
  15 O :   -0.389627
  16 H :    0.122038
  17 H :    0.267588
Sum of atomic charges:   -0.0000000

--------------------------------
MULLIKEN REDUCED ORBITAL CHARGES
--------------------------------
  0 O s       :     3.941792  s :     3.941792
      pz      :     1.423664  p :     4.436783
      px      :     1.473887
      py      :     1.539232
      dz2     :     0.002464  d :     0.010727
      dxz     :     0.001604
      dyz     :     0.000474
      dx2y2   :     0.002795
      dxy     :     0.003390
      f0      :    -0.000027  f :    -0.000036
      f+1     :     0.000061
      f-1     :    -0.000013
      f+2     :    -0.000026
      f-2     :     0.000090
      f+3     :     0.000049
      f-3     :    -0.000171
  1 H s       :     0.746025  s :     0.746025
      pz      :     0.021701  p :     0.112785
      px      :     0.041692
      py      :     0.049392
      dz2     :     0.007052  d :     0.018635
      dxz     :     0.004998
      dyz     :     0.000962
      dx2y2   :     0.001687
      dxy     :     0.003936
  2 H s       :     0.623165  s :     0.623165
      pz      :     0.038411  p :     0.058738
      px      :    -0.006784
      py      :     0.027111
      dz2     :     0.002872  d :     0.051098
      dxz     :     0.014086
      dyz     :     0.005535
      dx2y2   :     0.019173
      dxy     :     0.009432
  3 O s       :     3.941304  s :     3.941304
      pz      :     1.423404  p :     4.436970
      px      :     1.400188
      py      :     1.613378
      dz2     :     0.002456  d :     0.010701
      dxz     :     0.000516
      dyz     :     0.001550
      dx2y2   :    -0.000856
      dxy     :     0.007037
      f0      :    -0.000027  f :    -0.000038
      f+1     :    -0.000111
      f-1     :     0.000158
      f+2     :     0.000053
      f-2     :     0.000012
      f+3     :     0.000049
      f-3     :    -0.000171
  4 H s       :     0.623626  s :     0.623626
      pz      :     0.038364  p :     0.058631
      px      :    -0.016620
      py      :     0.036887
      dz2     :     0.002880  d :     0.050930
      dxz     :     0.014444
      dyz     :     0.005055
      dx2y2   :     0.021579
      dxy     :     0.006972
  5 H s       :     0.746495  s :     0.746495
      pz      :     0.021627  p :     0.113004
      px      :     0.043296
      py      :     0.048082
      dz2     :     0.007081  d :     0.018662
      dxz     :     0.001770
      dyz     :     0.004186
      dx2y2   :     0.003227
      dxy     :     0.002398
  6 O s       :     3.941303  s :     3.941303
      pz      :     1.423404  p :     4.436971
      px      :     1.400188
      py      :     1.613379
      dz2     :     0.002456  d :     0.010702
      dxz     :     0.000516
      dyz     :     0.001550
      dx2y2   :    -0.000856
      dxy     :     0.007037
      f0      :    -0.000027  f :    -0.000038
      f+1     :    -0.000111
      f-1     :     0.000158
      f+2     :     0.000053
      f-2     :     0.000012
      f+3     :     0.000049
      f-3     :    -0.000171
  7 H s       :     0.746496  s :     0.746496
      pz      :     0.021627  p :     0.113004
      px      :     0.043296
      py      :     0.048082
      dz2     :     0.007081  d :     0.018662
      dxz     :     0.001770
      dyz     :     0.004186
      dx2y2   :     0.003227
      dxy     :     0.002398
  8 H s       :     0.623625  s :     0.623625
      pz      :     0.038364  p :     0.058630
      px      :    -0.016621
      py      :     0.036887
      dz2     :     0.002880  d :     0.050930
      dxz     :     0.014444
      dyz     :     0.005055
      dx2y2   :     0.021579
      dxy     :     0.006972
  9 O s       :     3.941793  s :     3.941793
      pz      :     1.423663  p :     4.436784
      px      :     1.473888
      py      :     1.539233
      dz2     :     0.002464  d :     0.010727
      dxz     :     0.001604
      dyz     :     0.000474
      dx2y2   :     0.002795
      dxy     :     0.003390
      f0      :    -0.000027  f :    -0.000036
      f+1     :     0.000061
      f-1     :    -0.000013
      f+2     :    -0.000026
      f-2     :     0.000090
      f+3     :     0.000049
      f-3     :    -0.000171
 10 H s       :     0.623164  s :     0.623164
      pz      :     0.038411  p :     0.058739
      px      :    -0.006783
      py      :     0.027111
      dz2     :     0.002872  d :     0.051098
      dxz     :     0.014085
      dyz     :     0.005535
      dx2y2   :     0.019173
      dxy     :     0.009432
 11 H s       :     0.746025  s :     0.746025
      pz      :     0.021701  p :     0.112785
      px      :     0.041693
      py      :     0.049392
      dz2     :     0.007052  d :     0.018635
      dxz     :     0.004998
      dyz     :     0.000962
      dx2y2   :     0.001687
      dxy     :     0.003936
 12 O s       :     3.941675  s :     3.941675
      pz      :     1.423343  p :     4.437192
      px      :     1.646242
      py      :     1.367607
      dz2     :     0.002473  d :     0.010793
      dxz     :     0.000992
      dyz     :     0.001094
      dx2y2   :     0.007366
      dxy     :    -0.001132
      f0      :    -0.000027  f :    -0.000035
      f+1     :     0.000120
      f-1     :    -0.000072
      f+2     :     0.000070
      f-2     :    -0.000005
      f+3     :     0.000050
      f-3     :    -0.000171
 13 H s       :     0.746214  s :     0.746214
      pz      :     0.021532  p :     0.113038
      px      :     0.052207
      py      :     0.039299
      dz2     :     0.007067  d :     0.018711
      dxz     :     0.002210
      dyz     :     0.003793
      dx2y2   :     0.003529
      dxy     :     0.002111
 14 H s       :     0.623157  s :     0.623157
      pz      :     0.038373  p :     0.058304
      px      :     0.053556
      py      :    -0.033625
      dz2     :     0.002867  d :     0.050952
      dxz     :     0.000796
      dyz     :     0.018773
      dx2y2   :     0.002123
      dxy     :     0.026394
 15 O s       :     3.941677  s :     3.941677
      pz      :     1.423344  p :     4.437192
      px      :     1.646243
      py      :     1.367606
      dz2     :     0.002473  d :     0.010793
      dxz     :     0.000992
      dyz     :     0.001094
      dx2y2   :     0.007366
      dxy     :    -0.001132
      f0      :    -0.000027  f :    -0.000035
      f+1     :     0.000120
      f-1     :    -0.000072
      f+2     :     0.000070
      f-2     :    -0.000005
      f+3     :     0.000050
      f-3     :    -0.000171
 16 H s       :     0.746214  s :     0.746214
      pz      :     0.021532  p :     0.113038
      px      :     0.052207
      py      :     0.039299
      dz2     :     0.007067  d :     0.018711
      dxz     :     0.002210
      dyz     :     0.003793
      dx2y2   :     0.003529
      dxy     :     0.002111
 17 H s       :     0.623158  s :     0.623158
      pz      :     0.038373  p :     0.058302
      px      :     0.053556
      py      :    -0.033627
      dz2     :     0.002867  d :     0.050952
      dxz     :     0.000796
      dyz     :     0.018773
      dx2y2   :     0.002123
      dxy     :     0.026394


                     *******************************
                     * LOEWDIN POPULATION ANALYSIS *
                     *******************************

----------------------
LOEWDIN ATOMIC CHARGES
----------------------
   0 O :    1.130320
   1 H :   -0.454590
   2 H :   -0.675723
   3 O :    1.130306
   4 H :   -0.675713
   5 H :   -0.454602
   6 O :    1.130306
   7 H :   -0.454603
   8 H :   -0.675712
   9 O :    1.130320
  10 H :   -0.675721
  11 H :   -0.454591
  12 O :    1.130312
  13 H :   -0.454613
  14 H :   -0.675697
  15 O :    1.130311
  16 H :   -0.454613
  17 H :   -0.675696

-------------------------------
LOEWDIN REDUCED ORBITAL CHARGES
-------------------------------
  0 O s       :     2.949146  s :     2.949146
      pz      :     1.259579  p :     3.796803
      px      :     1.260784
      py      :     1.276441
      dz2     :     0.024069  d :     0.104596
      dxz     :     0.005947
      dyz     :     0.023914
      dx2y2   :     0.016363
      dxy     :     0.034303
      f0      :     0.000849  f :     0.019135
      f+1     :     0.003275
      f-1     :     0.005260
      f+2     :     0.001938
      f-2     :     0.000951
      f+3     :     0.000733
      f-3     :     0.006128
  1 H s       :     0.581515  s :     0.581515
      pz      :     0.221563  p :     0.531459
      px      :     0.137986
      py      :     0.171910
      dz2     :     0.106542  d :     0.341616
      dxz     :     0.076922
      dyz     :     0.088838
      dx2y2   :     0.029452
      dxy     :     0.039863
  2 H s       :     0.545942  s :     0.545942
      pz      :     0.139299  p :     0.624968
      px      :     0.293274
      py      :     0.192395
      dz2     :     0.053918  d :     0.504813
      dxz     :     0.107047
      dyz     :     0.049266
      dx2y2   :     0.148186
      dxy     :     0.146396
  3 O s       :     2.949144  s :     2.949144
      pz      :     1.259580  p :     3.796820
      px      :     1.238035
      py      :     1.299206
      dz2     :     0.024069  d :     0.104594
      dxz     :     0.015924
      dyz     :     0.013937
      dx2y2   :     0.024970
      dxy     :     0.025695
      f0      :     0.000849  f :     0.019135
      f+1     :     0.003636
      f-1     :     0.004899
      f+2     :     0.000498
      f-2     :     0.002391
      f+3     :     0.000733
      f-3     :     0.006128
  4 H s       :     0.545946  s :     0.545946
      pz      :     0.139296  p :     0.624970
      px      :     0.295070
      py      :     0.190605
      dz2     :     0.053921  d :     0.504797
      dxz     :     0.123189
      dyz     :     0.033114
      dx2y2   :     0.143674
      dxy     :     0.150899
  5 H s       :     0.581519  s :     0.581519
      pz      :     0.221569  p :     0.531471
      px      :     0.148923
      py      :     0.160979
      dz2     :     0.106541  d :     0.341612
      dxz     :     0.084577
      dyz     :     0.081180
      dx2y2   :     0.038887
      dxy     :     0.030426
  6 O s       :     2.949145  s :     2.949145
      pz      :     1.259580  p :     3.796820
      px      :     1.238034
      py      :     1.299206
      dz2     :     0.024069  d :     0.104594
      dxz     :     0.015924
      dyz     :     0.013937
      dx2y2   :     0.024970
      dxy     :     0.025695
      f0      :     0.000849  f :     0.019135
      f+1     :     0.003636
      f-1     :     0.004899
      f+2     :     0.000498
      f-2     :     0.002391
      f+3     :     0.000733
      f-3     :     0.006128
  7 H s       :     0.581519  s :     0.581519
      pz      :     0.221569  p :     0.531472
      px      :     0.148924
      py      :     0.160979
      dz2     :     0.106541  d :     0.341612
      dxz     :     0.084577
      dyz     :     0.081180
      dx2y2   :     0.038887
      dxy     :     0.030426
  8 H s       :     0.545945  s :     0.545945
      pz      :     0.139296  p :     0.624970
      px      :     0.295070
      py      :     0.190604
      dz2     :     0.053921  d :     0.504797
      dxz     :     0.123189
      dyz     :     0.033114
      dx2y2   :     0.143674
      dxy     :     0.150899
  9 O s       :     2.949146  s :     2.949146
      pz      :     1.259579  p :     3.796804
      px      :     1.260783
      py      :     1.276441
      dz2     :     0.024069  d :     0.104596
      dxz     :     0.005947
      dyz     :     0.023914
      dx2y2   :     0.016363
      dxy     :     0.034303
      f0      :     0.000849  f :     0.019135
      f+1     :     0.003275
      f-1     :     0.005260
      f+2     :     0.001938
      f-2     :     0.000951
      f+3     :     0.000733
      f-3     :     0.006128
 10 H s       :     0.545942  s :     0.545942
      pz      :     0.139298  p :     0.624967
      px      :     0.293274
      py      :     0.192395
      dz2     :     0.053918  d :     0.504812
      dxz     :     0.107046
      dyz     :     0.049266
      dx2y2   :     0.148186
      dxy     :     0.146396
 11 H s       :     0.581515  s :     0.581515
      pz      :     0.221563  p :     0.531459
      px      :     0.137986
      py      :     0.171910
      dz2     :     0.106542  d :     0.341617
      dxz     :     0.076922
      dyz     :     0.088838
      dx2y2   :     0.029452
      dxy     :     0.039863
 12 O s       :     2.949144  s :     2.949144
      pz      :     1.259576  p :     3.796816
      px      :     1.307032
      py      :     1.230208
      dz2     :     0.024068  d :     0.104593
      dxz     :     0.022920
      dyz     :     0.006940
      dx2y2   :     0.034666
      dxy     :     0.015999
      f0      :     0.000849  f :     0.019135
      f+1     :     0.005891
      f-1     :     0.002644
      f+2     :     0.001898
      f-2     :     0.000991
      f+3     :     0.000733
      f-3     :     0.006128
 13 H s       :     0.581517  s :     0.581517
      pz      :     0.221563  p :     0.531480
      px      :     0.177958
      py      :     0.131959
      dz2     :     0.106539  d :     0.341616
      dxz     :     0.087139
      dyz     :     0.078623
      dx2y2   :     0.035634
      dxy     :     0.033681
 14 H s       :     0.545939  s :     0.545939
      pz      :     0.139301  p :     0.624956
      px      :     0.140148
      py      :     0.345507
      dz2     :     0.053921  d :     0.504801
      dxz     :     0.004223
      dyz     :     0.152080
      dx2y2   :     0.150010
      dxy     :     0.144568
 15 O s       :     2.949145  s :     2.949145
      pz      :     1.259576  p :     3.796817
      px      :     1.307032
      py      :     1.230208
      dz2     :     0.024068  d :     0.104593
      dxz     :     0.022920
      dyz     :     0.006940
      dx2y2   :     0.034666
      dxy     :     0.015999
      f0      :     0.000849  f :     0.019135
      f+1     :     0.005891
      f-1     :     0.002644
      f+2     :     0.001898
      f-2     :     0.000991
      f+3     :     0.000733
      f-3     :     0.006128
 16 H s       :     0.581517  s :     0.581517
      pz      :     0.221563  p :     0.531479
      px      :     0.177958
      py      :     0.131958
      dz2     :     0.106539  d :     0.341616
      dxz     :     0.087139
      dyz     :     0.078623
      dx2y2   :     0.035634
      dxy     :     0.033681
 17 H s       :     0.545939  s :     0.545939
      pz      :     0.139301  p :     0.624956
      px      :     0.140148
      py      :     0.345507
      dz2     :     0.053921  d :     0.504801
      dxz     :     0.004223
      dyz     :     0.152080
      dx2y2   :     0.150010
      dxy     :     0.144568


                      *****************************
                      * MAYER POPULATION ANALYSIS *
                      *****************************

  NA   - Mulliken gross atomic population
  ZA   - Total nuclear charge
  QA   - Mulliken gross atomic charge
  VA   - Mayer's total valence
  BVA  - Mayer's bonded valence
  FA   - Mayer's free valence

  ATOM       NA         ZA         QA         VA         BVA        FA
  0 O      8.3893     8.0000    -0.3893     1.9014     1.9014     0.0000
  1 H      0.8774     1.0000     0.1226     1.1154     1.1154     0.0000
  2 H      0.7330     1.0000     0.2670     0.9812     0.9812     0.0000
  3 O      8.3889     8.0000    -0.3889     1.9012     1.9012    -0.0000
  4 H      0.7332     1.0000     0.2668     0.9813     0.9813    -0.0000
  5 H      0.8782     1.0000     0.1218     1.1161     1.1161    -0.0000
  6 O      8.3889     8.0000    -0.3889     1.9011     1.9011    -0.0000
  7 H      0.8782     1.0000     0.1218     1.1161     1.1161     0.0000
  8 H      0.7332     1.0000     0.2668     0.9813     0.9813    -0.0000
  9 O      8.3893     8.0000    -0.3893     1.9014     1.9014     0.0000
 10 H      0.7330     1.0000     0.2670     0.9812     0.9812     0.0000
 11 H      0.8774     1.0000     0.1226     1.1154     1.1154    -0.0000
 12 O      8.3896     8.0000    -0.3896     1.9011     1.9011    -0.0000
 13 H      0.8780     1.0000     0.1220     1.1161     1.1161    -0.0000
 14 H      0.7324     1.0000     0.2676     0.9802     0.9802    -0.0000
 15 O      8.3896     8.0000    -0.3896     1.9011     1.9011     0.0000
 16 H      0.8780     1.0000     0.1220     1.1161     1.1161    -0.0000
 17 H      0.7324     1.0000     0.2676     0.9802     0.9802    -0.0000

  Mayer bond orders larger than 0.100000
B(  0-O ,  1-H ) :   1.0683 B(  0-O ,  2-H ) :   0.8635 B(  3-O ,  4-H ) :   0.8631 
B(  3-O ,  5-H ) :   1.0690 B(  6-O ,  7-H ) :   1.0690 B(  6-O ,  8-H ) :   0.8631 
B(  9-O , 10-H ) :   0.8635 B(  9-O , 11-H ) :   1.0683 B( 12-O , 13-H ) :   1.0688 
B( 12-O , 14-H ) :   0.8629 B( 15-O , 16-H ) :   1.0688 B( 15-O , 17-H ) :   0.8629 


-------
TIMINGS
-------

Total SCF time: 0 days 0 hours 1 min 2 sec 

Total time                  ....      62.644 sec
Sum of individual times     ....      62.113 sec  ( 99.2%)

Fock matrix formation       ....      60.628 sec  ( 96.8%)
  XC integration            ....       3.191 sec  (  5.3% of F)
    Basis function eval.    ....       0.291 sec  (  9.1% of XC)
    Density eval.           ....       0.740 sec  ( 23.2% of XC)
    XC-Functional eval.     ....       0.063 sec  (  2.0% of XC)
    XC-Potential eval.      ....       1.467 sec  ( 46.0% of XC)
Diagonalization             ....       0.365 sec  (  0.6%)
Density matrix formation    ....       0.037 sec  (  0.1%)
Population analysis         ....       0.050 sec  (  0.1%)
Initial guess               ....       0.298 sec  (  0.5%)
Orbital Transformation      ....       0.000 sec  (  0.0%)
Orbital Orthonormalization  ....       0.000 sec  (  0.0%)
DIIS solution               ....       0.161 sec  (  0.3%)
SOSCF solution              ....       0.266 sec  (  0.4%)
Grid generation             ....       0.308 sec  (  0.5%)


-------------------------------------------------------------------------------
                          DFT DISPERSION CORRECTION                            
                                                                               
                              DFTD3 V3.1  Rev 1                                
                          USING Becke-Johnson damping                          
-------------------------------------------------------------------------------
The TPSSH functional is recognized
Active option DFTDOPT                   ...         4   

molecular C6(AA) [au] = 1602.214577 


            DFT-D V3
 parameters
 s6 scaling factor         :     1.0000 
 a1 scaling factor         :     0.4529 
 s8 scaling factor         :     2.2382 
 a2 scaling factor         :     4.6550 
 ad hoc parameters k1-k3   :    16.0000     1.3333    -4.0000 

 Edisp/kcal,au: -4.993679991067  -0.007957934764 
 E6   /kcal   :  -2.775015624 
 E8   /kcal   :  -2.218664367 
 % E8         :  44.429446244 

-------------------------   ----------------
Dispersion correction           -0.007957935
-------------------------   ----------------


-------------------------   --------------------
FINAL SINGLE POINT ENERGY      -458.825954731240
-------------------------   --------------------



           ************************************************************
           *        Program running with 24 parallel MPI-processes    *
           *              working on a common directory               *
           ************************************************************
------------------------------------------------------------------------------
                         ORCA SCF GRADIENT CALCULATION
------------------------------------------------------------------------------

Gradient of the Kohn-Sham DFT energy:
Kohn-Sham wavefunction type      ... RKS
Hartree-Fock exchange scaling    ...    0.100
Number of operators              ...    1
Number of atoms                  ...   18
Basis set dimensions             ...  552
Integral neglect threshold       ... 2.5e-11
Integral primitive cutoff        ... 2.5e-12

Nuclear repulsion gradient       ... done
One Electron Gradient            ... done
Pre-screening matrix             ... done
Starting the two electron gradient:
Two electron gradient done
Exchange-correlation gradient    ... done
Dispersion correction            ... done

------------------
CARTESIAN GRADIENT
------------------

   1   O   :   -0.007485378   -0.001495777    0.002888842
   2   H   :   -0.000333035   -0.002616145   -0.003828623
   3   H   :    0.007222342    0.005235863    0.001979873
   4   O   :    0.004985469   -0.005782368    0.002914078
   5   H   :   -0.008150823    0.003632650    0.001982615
   6   H   :    0.002434652    0.001018438   -0.003826276
   7   O   :   -0.004984668    0.005782103   -0.002914403
   8   H   :   -0.002434932   -0.001018560    0.003826649
   9   H   :    0.008150316   -0.003632291   -0.001982672
  10   O   :    0.007484403    0.001494904   -0.002889355
  11   H   :   -0.007221423   -0.005235365   -0.001979845
  12   H   :    0.000333004    0.002616515    0.003829119
  13   O   :    0.002440070    0.007230781    0.002904154
  14   H   :   -0.002099293    0.001603744   -0.003827095
  15   H   :    0.000924866   -0.008871835    0.001980261
  16   O   :   -0.002439702   -0.007230054   -0.002903715
[...]
      4       0.024169  -0.025582  -0.023003   0.031521   0.009871   0.023005
      5       0.019433  -0.019881  -0.020419   0.027252   0.007742   0.020209
      6      -0.343362   0.410955   0.254708  -0.429049  -0.215111  -0.338041
      7      -0.218184   0.270247   0.154570  -0.277444  -0.148356  -0.223085
      8      -0.004837   0.009798   0.004716  -0.013006  -0.007103  -0.011616
      9      -0.022858   0.000356  -0.031390   0.001486   0.030793  -0.021684
     10       0.011526  -0.000268   0.017355  -0.001319  -0.017271   0.012098
     11      -0.000765   0.000645  -0.000891   0.000489   0.000751  -0.000545
     12       0.359828  -0.005632   0.510247  -0.022692  -0.513587   0.365218
     13      -0.186590   0.013419  -0.260572   0.019156   0.256686  -0.181372
     14      -0.004664  -0.000903  -0.010572   0.000258   0.014569  -0.011473
     15      -0.021891   0.002380  -0.031459   0.003004   0.033814  -0.025324
     16      -0.010179   0.009955  -0.012352   0.009013   0.005850  -0.002535
     17       0.019249  -0.007669   0.027112  -0.006862  -0.027328   0.020263
     18       0.022859   0.000356  -0.031391  -0.001484  -0.030793  -0.021683
     19      -0.011527  -0.000268   0.017355   0.001317   0.017271   0.012098
     20       0.000765   0.000645  -0.000891  -0.000489  -0.000751  -0.000545
     21       0.021891   0.002380  -0.031458  -0.003001  -0.033816  -0.025325
     22       0.010179   0.009953  -0.012353  -0.009012  -0.005849  -0.002536
     23      -0.019249  -0.007668   0.027112   0.006859   0.027329   0.020263
     24      -0.359845  -0.005640   0.510253   0.022653   0.513588   0.365195
     25       0.186596   0.013422  -0.260576  -0.019139  -0.256686  -0.181360
     26       0.004663  -0.000903  -0.010572  -0.000257  -0.014569  -0.011471
     27      -0.021529  -0.026524  -0.015795  -0.027182  -0.013590   0.021212
     28      -0.014016  -0.015917  -0.009418  -0.015805  -0.008389   0.012519
     29       0.000753   0.000449   0.001007   0.000923  -0.000057  -0.000562
     30       0.343373   0.410952   0.254752   0.429018   0.215108  -0.338044
     31       0.218190   0.270243   0.154596   0.277427   0.148355  -0.223084
     32       0.004838   0.009797   0.004715   0.013003   0.007104  -0.011617
     33      -0.002547  -0.008647   0.003383  -0.007949  -0.011677   0.011173
     34      -0.024169  -0.025581  -0.023009  -0.031521  -0.009866   0.023002
     35      -0.019433  -0.019879  -0.020423  -0.027250  -0.007736   0.020206
     36       0.001491   0.000610  -0.000353  -0.000520  -0.000113   0.000296
     37      -0.025630  -0.031338   0.017689   0.029632  -0.019239  -0.024683
     38      -0.000815  -0.001176  -0.000072   0.000503  -0.000878  -0.000625
     39       0.020138   0.028426  -0.005044  -0.015005   0.019527   0.015418
     40      -0.013253  -0.015865   0.012586   0.022627  -0.010715  -0.019460
     41       0.019826   0.028287  -0.007407  -0.021226   0.020353   0.021198
     42      -0.018979  -0.021805   0.022645   0.032932  -0.013282  -0.025651
     43       0.406087   0.502113  -0.277978  -0.481337   0.310772   0.404496
     44      -0.004357  -0.008331   0.005882   0.012116  -0.007278  -0.011098
     45      -0.001491   0.000610  -0.000353   0.000520   0.000113   0.000296
     46       0.025629  -0.031341   0.017688  -0.029631   0.019236  -0.024684
     47       0.000814  -0.001176  -0.000072  -0.000503   0.000878  -0.000624
     48      -0.020138   0.028427  -0.005043   0.015005  -0.019526   0.015418
     49       0.013252  -0.015866   0.012585  -0.022626   0.010712  -0.019460
     50      -0.019824   0.028289  -0.007406   0.021227  -0.020353   0.021196
     51       0.018979  -0.021807   0.022645  -0.032934   0.013279  -0.025652
     52      -0.406065   0.502160  -0.277964   0.481330  -0.310726   0.404512
     53       0.004357  -0.008332   0.005883  -0.012117   0.007278  -0.011099
                 48         49         50         51         52         53    
      0       0.000016  -0.000138   0.000447   0.000409   0.000431   0.000135
      1      -0.018039  -0.020417  -0.015319  -0.021282   0.009891  -0.015065
      2      -0.019817  -0.022311  -0.017001  -0.023389   0.010552  -0.016352
      3      -0.026961  -0.030564  -0.022458  -0.031271   0.014820  -0.022200
      4       0.279311   0.314572   0.240721   0.331270  -0.148959   0.231494
      5       0.324825   0.365734   0.279616   0.384790  -0.173291   0.268871
      6       0.024552   0.029822   0.014874   0.024545  -0.019611   0.020262
      7       0.006972   0.009247   0.001244   0.004216  -0.008000   0.005329
      8      -0.010723  -0.010917  -0.010464  -0.012509   0.003496  -0.007475
      9       0.015857  -0.018319   0.012123  -0.017915  -0.008895   0.012952
     10       0.009404  -0.011037   0.006733  -0.010254  -0.005839   0.007854
     11      -0.020188   0.023515  -0.014963   0.022353   0.011788  -0.016464
     12      -0.017076   0.016656  -0.019328   0.023945   0.002359  -0.012762
     13       0.017422  -0.019003   0.015947  -0.022113  -0.007132   0.013987
     14      -0.011291   0.013472  -0.006219   0.010149   0.007376  -0.008074
     15      -0.233453   0.272400  -0.171983   0.258560   0.137577  -0.191021
     16      -0.168063   0.195577  -0.124471   0.186208   0.098108  -0.137146
     17       0.332093  -0.386903   0.245042  -0.367695  -0.194726   0.271112
     18       0.015835   0.018320  -0.012123  -0.017914  -0.008917  -0.012963
     19       0.009391   0.011038  -0.006733  -0.010254  -0.005852  -0.007860
     20      -0.020160  -0.023517   0.014962   0.022353   0.011817   0.016477
     21      -0.233132  -0.272417   0.171973   0.258556   0.137903   0.191172
     22      -0.167832  -0.195589   0.124466   0.186204   0.098344   0.137256
     23       0.331636   0.386924  -0.245028  -0.367686  -0.195190  -0.271327
     24      -0.017059  -0.016657   0.019339   0.023935   0.002393   0.012778
     25       0.017400   0.019003  -0.015952  -0.022108  -0.007162  -0.014002
     26      -0.011275  -0.013474   0.006216   0.010151   0.007388   0.008080
     27       0.000016   0.000138  -0.000447   0.000410   0.000430  -0.000136
     28      -0.018044   0.020390   0.015291  -0.021309   0.009920   0.015064
     29      -0.019823   0.022281   0.016971  -0.023419   0.010584   0.016352
     30       0.024559  -0.029786  -0.014833   0.024580  -0.019644  -0.020257
     31       0.006974  -0.009238  -0.001230   0.004222  -0.008006  -0.005325
     32      -0.010727   0.010900   0.010449  -0.012524   0.003515   0.007476
     33      -0.026969   0.030524   0.022417  -0.031312   0.014864   0.022200
     34       0.279397  -0.314156  -0.240293   0.331699  -0.149418  -0.231492
     35       0.324926  -0.365250  -0.279118   0.385287  -0.173823  -0.268867
     36      -0.012558  -0.000890   0.018347   0.000572  -0.022422  -0.018008
     37       0.007168   0.000016  -0.010508   0.000340   0.012763   0.010132
     38      -0.015914  -0.001120   0.023284   0.000645  -0.028240  -0.022581
     39       0.205124   0.014469  -0.300017  -0.008306   0.364560   0.291444
     40      -0.092809  -0.007301   0.136062   0.004478  -0.165955  -0.132725
     41       0.261675   0.018665  -0.382578  -0.010728   0.464953   0.371541
     42      -0.004798  -0.001365   0.007402   0.001296  -0.009497  -0.007589
     43      -0.019551   0.006636   0.028422  -0.008914  -0.034951  -0.027261
     44      -0.009042  -0.002472   0.012613   0.002197  -0.014178  -0.011110
     45      -0.012543   0.000882  -0.018323   0.000578  -0.022429   0.018034
     46       0.007159  -0.000011   0.010495   0.000336   0.012768  -0.010147
     47      -0.015895   0.001110  -0.023253   0.000653  -0.028250   0.022613
     48       0.204883  -0.014339   0.299618  -0.008412   0.364688  -0.291867
     49      -0.092699   0.007242  -0.135879   0.004524  -0.166012   0.132916
     50       0.261368  -0.018500   0.382070  -0.010861   0.465117  -0.372081
     51      -0.004792   0.001364  -0.007390   0.001298  -0.009500   0.007600
     52      -0.019520  -0.006657  -0.028386  -0.008898  -0.034967   0.027298
     53      -0.009034   0.002467  -0.012594   0.002199  -0.014184   0.011127


-----------
IR SPECTRUM  
-----------

 Mode    freq (cm**-1)   T**2         TX         TY         TZ
-------------------------------------------------------------------
   6:        12.34    1.186234  (  0.830962   0.678038  -0.189739)
   7:        27.11    0.857529  ( -0.548202   0.740779  -0.090835)
   8:        41.65    0.000000  ( -0.000139   0.000366  -0.000133)
   9:        52.89    0.000002  (  0.000133  -0.000316   0.001231)
  10:        54.48    0.000001  ( -0.000540  -0.000225  -0.000535)
  11:        97.02   10.503373  (  0.100052   0.031198  -3.239196)
  12:       168.22    0.000004  ( -0.000503  -0.000561   0.001958)
  13:       212.26   72.688283  (  0.169379  -0.350290   8.516859)
  14:       236.14   39.687119  ( -6.203598   1.093944   0.076031)
  15:       236.47   37.292435  ( -1.953392  -5.785502   0.068268)
  16:       238.10    0.000072  ( -0.007930   0.001597  -0.002529)
  17:       240.12    0.000028  (  0.005274   0.000120  -0.000647)
  18:       304.03  335.768449  ( 14.676892 -10.969584  -0.159700)
  19:       306.18  331.674608  ( 10.899238  14.589196   0.191239)
  20:       330.93    0.000006  (  0.000180   0.002364  -0.000320)
  21:       331.51    0.000002  ( -0.000533   0.001131  -0.000135)
  22:       342.29    0.000015  ( -0.003621   0.000767   0.001184)
  23:       367.64    0.147122  (  0.061022   0.310147   0.217271)
  24:       471.10    0.000008  (  0.002168   0.000970  -0.001674)
  25:       479.45   18.823852  ( -0.211183  -1.700514  -3.985913)
  26:       493.93   51.788155  (  7.193065  -0.215070  -0.041468)
  27:       498.25   42.972699  (  0.290369   6.517973  -0.635932)
  28:       503.49    0.000012  (  0.003328  -0.000163  -0.000761)
  29:       511.31    0.000011  (  0.001190  -0.003075  -0.000412)
  30:       854.00  251.607775  ( -0.052687   0.084551  15.861836)
  31:       873.02    0.000079  (  0.000740  -0.000031  -0.008860)
  32:       873.98    0.000005  ( -0.000254  -0.000016   0.002122)
  33:       974.46   95.260484  ( -5.778980  -7.865329  -0.021655)
  34:       975.62   92.478493  (  7.831293  -5.581157   0.004936)
  35:      1054.15    0.000001  (  0.000864   0.000113  -0.000037)
  36:      1650.45  101.990496  (  0.058283   0.234812 -10.096136)
  37:      1664.85    0.000000  (  0.000012  -0.000069   0.000414)
  38:      1666.11    0.000001  ( -0.000263  -0.000475   0.001033)
  39:      1700.63   85.177307  ( -8.767874   2.876534  -0.165044)
  40:      1700.98   75.614997  (  2.956501   8.174404   0.230697)
  41:      1722.70    0.000001  (  0.000415   0.000805   0.000100)
  42:      3114.90    0.000001  ( -0.000228   0.001167  -0.000045)
  43:      3217.77  3525.730461  ( 26.818927  52.976179   0.008476)
  44:      3218.23  3544.412195  ( 53.087774 -26.946233   0.030667)
  45:      3289.20    0.000006  ( -0.002387  -0.000196   0.000053)
  46:      3289.58    0.000002  ( -0.000120   0.001546  -0.000063)
  47:      3308.05   35.103297  (  0.056755   0.022981  -5.924487)
  48:      3826.44   92.243531  ( -0.714407   0.845707   9.540332)
  49:      3827.38    0.000022  (  0.002084   0.002371   0.003473)
  50:      3827.78    0.000047  ( -0.000779   0.006796  -0.000009)
  51:      3829.39  101.337977  (  8.011566   6.095045   0.056649)
  52:      3830.24   98.290270  (  5.976270  -7.856335   0.923291)
  53:      3831.08    0.000028  ( -0.000741   0.003501  -0.003876)

The first frequency considered to be a vibration is 6
The total number of vibrations considered is 48


--------------------------
THERMOCHEMISTRY AT 298.15K
--------------------------

Temperature         ... 298.15 K
Pressure            ... 1.00 atm
Total Mass          ... 108.09 AMU

Throughout the following assumptions are being made:
  (1) The electronic state is orbitally nondegenerate
  (2) There are no thermally accessible electronically excited states
  (3) Hindered rotations indicated by low frequency modes are not
      treated as such but are treated as vibrations and this may
      cause some error
  (4) All equations used are the standard statistical mechanics
      equations for an ideal gas
  (5) All vibrations are strictly harmonic

freq.      12.34  E(vib)   ...       0.58 
freq.      27.11  E(vib)   ...       0.55 
freq.      41.65  E(vib)   ...       0.53 
freq.      52.89  E(vib)   ...       0.52 
freq.      54.48  E(vib)   ...       0.52 
freq.      97.02  E(vib)   ...       0.46 
freq.     168.22  E(vib)   ...       0.38 
freq.     212.26  E(vib)   ...       0.34 
freq.     236.14  E(vib)   ...       0.32 
freq.     236.47  E(vib)   ...       0.32 
freq.     238.10  E(vib)   ...       0.32 
freq.     240.12  E(vib)   ...       0.31 
freq.     304.03  E(vib)   ...       0.26 
freq.     306.18  E(vib)   ...       0.26 
freq.     330.93  E(vib)   ...       0.24 
freq.     331.51  E(vib)   ...       0.24 
freq.     342.29  E(vib)   ...       0.23 
freq.     367.64  E(vib)   ...       0.21 
freq.     471.10  E(vib)   ...       0.15 
freq.     479.45  E(vib)   ...       0.15 
freq.     493.93  E(vib)   ...       0.14 
freq.     498.25  E(vib)   ...       0.14 
freq.     503.49  E(vib)   ...       0.14 
freq.     511.31  E(vib)   ...       0.14 
freq.     854.00  E(vib)   ...       0.04 
freq.     873.02  E(vib)   ...       0.04 
freq.     873.98  E(vib)   ...       0.04 
freq.     974.46  E(vib)   ...       0.03 
freq.     975.62  E(vib)   ...       0.03 
freq.    1054.15  E(vib)   ...       0.02 
freq.    1650.45  E(vib)   ...       0.00 
freq.    1664.85  E(vib)   ...       0.00 
freq.    1666.11  E(vib)   ...       0.00 
freq.    1700.63  E(vib)   ...       0.00 
freq.    1700.98  E(vib)   ...       0.00 
freq.    1722.70  E(vib)   ...       0.00 
freq.    3114.90  E(vib)   ...       0.00 
freq.    3217.77  E(vib)   ...       0.00 
freq.    3218.23  E(vib)   ...       0.00 
freq.    3289.20  E(vib)   ...       0.00 
freq.    3289.58  E(vib)   ...       0.00 
freq.    3308.05  E(vib)   ...       0.00 
freq.    3826.44  E(vib)   ...       0.00 
freq.    3827.38  E(vib)   ...       0.00 
freq.    3827.78  E(vib)   ...       0.00 
freq.    3829.39  E(vib)   ...       0.00 
freq.    3830.24  E(vib)   ...       0.00 
freq.    3831.08  E(vib)   ...       0.00 

------------
INNER ENERGY
------------

The inner energy is: U= E(el) + E(ZPE) + E(vib) + E(rot) + E(trans)
    E(el)   - is the total energy from the electronic structure calculation
              = E(kin-el) + E(nuc-el) + E(el-el) + E(nuc-nuc)
    E(ZPE)  - the the zero temperature vibrational energy from the frequency calculation
    E(vib)  - the the finite temperature correction to E(ZPE) due to population
              of excited vibrational states
    E(rot)  - is the rotational thermal energy
    E(trans)- is the translational thermal energy

Summary of contributions to the inner energy U:
Electronic energy                ...   -458.82701259 Eh
Zero point energy                ...      0.14734707 Eh      92.46 kcal/mol
Thermal vibrational correction   ...      0.01220831 Eh       7.66 kcal/mol
Thermal rotational correction    ...      0.00141627 Eh       0.89 kcal/mol
Thermal translational correction ...      0.00141627 Eh       0.89 kcal/mol
-----------------------------------------------------------------------
Total thermal energy                   -458.66462466 Eh


Summary of corrections to the electronic energy:
(perhaps to be used in another calculation)
Total thermal correction                  0.01504085 Eh       9.44 kcal/mol
Non-thermal (ZPE) correction              0.14734707 Eh      92.46 kcal/mol
-----------------------------------------------------------------------
Total correction                          0.16238793 Eh     101.90 kcal/mol


--------
ENTHALPY
--------

The enthalpy is H = U + kB*T
                kB is Boltzmann's constant
Total free energy                 ...   -458.66462466 Eh 
Thermal Enthalpy correction       ...      0.00094421 Eh       0.59 kcal/mol
-----------------------------------------------------------------------
Total Enthalpy                    ...   -458.66368045 Eh

Error (ORCA_SYM): TSymmetryOperation::SetReflection called with NULL axis!
If your molecule is not C1 symmetric, check warnings below carefully ...
Error (ORCA_SYM): TSymmetryOperation::SetReflection called with NULL axis!
If your molecule is not C1 symmetric, check warnings below carefully ...

Note: Only C1 symmetry has been detected, increase convergence thresholds 
      if your molecule has a higher symmetry. Symmetry factor of 1.0 is   
      used for the rotational entropy correction. 
 

Note: Rotational entropy computed according to Herzberg 
Infrared and Raman Spectra, Chapter V,1, Van Nostrand Reinhold, 1945 
Point Group:  C1, Symmetry Number:   1  
Rotational constants in cm-1:     0.042772     0.042520     0.021493 

Vibrational entropy computed according to the QRRHO of S. Grimme
Chem.Eur.J. 2012 18 9955


-------
ENTROPY
-------

The entropy contributions are T*S = T*(S(el)+S(vib)+S(rot)+S(trans))
     S(el)   - electronic entropy
     S(vib)  - vibrational entropy
     S(rot)  - rotational entropy
     S(trans)- translational entropy
The entropies will be listed as mutliplied by the temperature to get
units of energy

Electronic entropy                ...      0.00000000 Eh      0.00 kcal/mol
Vibrational entropy               ...      0.02252478 Eh     14.13 kcal/mol
Rotational entropy                ...      0.01430237 Eh      8.97 kcal/mol
Translational entropy             ...      0.01898142 Eh     11.91 kcal/mol
-----------------------------------------------------------------------
Final entropy term                ...      0.05580857 Eh     35.02 kcal/mol

In case the symmetry of your molecule has not been determined correctly
or in case you have a reason to use a different symmetry number we print 
out the resulting rotational entropy values for sn=1,12 :
 --------------------------------------------------------
|  sn= 1 | S(rot)=       0.01430237 Eh      8.97 kcal/mol|
|  sn= 2 | S(rot)=       0.01364792 Eh      8.56 kcal/mol|
|  sn= 3 | S(rot)=       0.01326508 Eh      8.32 kcal/mol|
|  sn= 4 | S(rot)=       0.01299346 Eh      8.15 kcal/mol|
|  sn= 5 | S(rot)=       0.01278277 Eh      8.02 kcal/mol|
|  sn= 6 | S(rot)=       0.01261063 Eh      7.91 kcal/mol|
|  sn= 7 | S(rot)=       0.01246508 Eh      7.82 kcal/mol|
|  sn= 8 | S(rot)=       0.01233900 Eh      7.74 kcal/mol|
|  sn= 9 | S(rot)=       0.01222780 Eh      7.67 kcal/mol|
|  sn=10 | S(rot)=       0.01212832 Eh      7.61 kcal/mol|
|  sn=11 | S(rot)=       0.01203833 Eh      7.55 kcal/mol|
|  sn=12 | S(rot)=       0.01195617 Eh      7.50 kcal/mol|
 --------------------------------------------------------


-------------------
GIBBS FREE ENERGY
-------------------

The Gibbs free energy is G = H - T*S

Total enthalpy                    ...   -458.66368045 Eh 
Total entropy correction          ...     -0.05580857 Eh    -35.02 kcal/mol
-----------------------------------------------------------------------
Final Gibbs free energy         ...   -458.71948902 Eh

For completeness - the Gibbs free energy minus the electronic energy
G-E(el)                           ...      0.10752357 Eh     67.47 kcal/mol


Total Time for Numerical Frequencies  :      6541.926 sec

Timings for individual modules:

Sum of individual times         ...      803.470 sec (=  13.391 min)
GTO integral calculation        ...       10.971 sec (=   0.183 min)   1.4 %
SCF iterations                  ...      482.866 sec (=   8.048 min)  60.1 %
SCF Gradient evaluation         ...      308.845 sec (=   5.147 min)  38.4 %
Geometry relaxation             ...        0.788 sec (=   0.013 min)   0.1 %
                             ****ORCA TERMINATED NORMALLY****
TOTAL RUN TIME: 0 days 2 hours 1 minutes 45 seconds 536 msec
