
                                 *****************
                                 * O   R   C   A *
                                 *****************

           --- An Ab Initio, DFT and Semiempirical electronic structure package ---

                  #######################################################
                  #                        -***-                        #
                  #          Department of theory and spectroscopy      #
                  #               Directorship: Frank Neese             #
                  #        Max Planck Institute fuer Kohlenforschung    #
                  #                Kaiser Wilhelm Platz 1               #
                  #                 D-45470 Muelheim/Ruhr               #
                  #                      Germany                        #
                  #                                                     #
                  #                  All rights reserved                #
                  #                        -***-                        #
                  #######################################################


                         Program Version 4.2.0 -  RELEASE  -


 With contributions from (in alphabetic order):
   Daniel Aravena         : Magnetic Suceptibility
   Michael Atanasov       : Ab Initio Ligand Field Theory (pilot matlab implementation)
   Alexander A. Auer      : GIAO ZORA, VPT2
   Ute Becker             : Parallelization
   Giovanni Bistoni       : ED, misc. LED, open-shell LED, HFLED
   Martin Brehm           : Molecular dynamics
   Dmytro Bykov           : SCF Hessian
   Vijay G. Chilkuri      : MRCI spin determinant printing, contributions to CSF-ICE
   Dipayan Datta          : RHF DLPNO-CCSD density
   Achintya Kumar Dutta   : EOM-CC, STEOM-CC
   Dmitry Ganyushin       : Spin-Orbit,Spin-Spin,Magnetic field MRCI
   Miquel Garcia          : C-PCM Hessian, Gaussian charge scheme
   Yang Guo               : DLPNO-NEVPT2, CIM, IAO-localization
   Andreas Hansen         : Spin unrestricted coupled pair/coupled cluster methods
   Benjamin Helmich-Paris : CASSCF linear response (MC-RPA)
   Lee Huntington         : MR-EOM, pCC
   Robert Izsak           : Overlap fitted RIJCOSX, COSX-SCS-MP3, EOM
   Christian Kollmar      : KDIIS, OOCD, Brueckner-CCSD(T), CCSD density
   Simone Kossmann        : Meta GGA functionals, TD-DFT gradient, OOMP2, MP2 Hessian
   Martin Krupicka        : AUTO-CI
   Lucas Lang             : DCDCAS
   Dagmar Lenk            : GEPOL surface, SMD
   Dimitrios Liakos       : Extrapolation schemes; Compound Job, initial MDCI parallelization
   Dimitrios Manganas     : Further ROCIS development; embedding schemes
   Dimitrios Pantazis     : SARC Basis sets
   Taras Petrenko         : DFT Hessian,TD-DFT gradient, ASA, ECA, R-Raman, ABS, FL, XAS/XES, NRVS
   Peter Pinski           : DLPNO-MP2, DLPNO-MP2 Gradient
   Christoph Reimann      : Effective Core Potentials
   Marius Retegan         : Local ZFS, SOC
   Christoph Riplinger    : Optimizer, TS searches, QM/MM, DLPNO-CCSD(T), (RO)-DLPNO pert. Triples
   Tobias Risthaus        : Range-separated hybrids, TD-DFT gradient, RPA, STAB
   Michael Roemelt        : Original ROCIS implementation
   Masaaki Saitow         : Open-shell DLPNO-CCSD energy and density
   Barbara Sandhoefer     : DKH picture change effects
   Avijit Sen             : IP-ROCIS
   Kantharuban Sivalingam : CASSCF convergence, NEVPT2, FIC-MRCI
   Bernardo de Souza      : ESD, SOC TD-DFT
   Georgi Stoychev        : AutoAux, RI-MP2 NMR
   Willem Van den Heuvel  : Paramagnetic NMR
   Boris Wezisla          : Elementary symmetry handling
   Frank Wennmohs         : Technical directorship


 We gratefully acknowledge several colleagues who have allowed us to
 interface, adapt or use parts of their codes:
   Stefan Grimme, W. Hujo, H. Kruse,             : VdW corrections, initial TS optimization,
                  C. Bannwarth                     DFT functionals, gCP, sTDA/sTD-DF
   Ed Valeev, F. Pavosevic, A. Kumar             : LibInt (2-el integral package), F12 methods
   Garnet Chan, S. Sharma, J. Yang, R. Olivares  : DMRG
   Ulf Ekstrom                                   : XCFun DFT Library
   Mihaly Kallay                                 : mrcc  (arbitrary order and MRCC methods)
   Andreas Klamt, Michael Diedenhofen            : otool_cosmo (COSMO solvation model)
   Jiri Pittner, Ondrej Demel                    : Mk-CCSD
   Frank Weinhold                                : gennbo (NPA and NBO analysis)
   Christopher J. Cramer and Donald G. Truhlar   : smd solvation model
   Lars Goerigk                                  : TD-DFT with DH, B97 family of functionals
   V. Asgeirsson, H. Jonsson                     : NEB implementation
   FAccTs GmbH                                   : IRC, NEB, NEB-TS, Multilevel, MM, QM/MM, CI optimization
   S Lehtola, MJT Oliveira, MAL Marques          : LibXC Library


 Your calculation uses the libint2 library for the computation of 2-el integrals
 For citations please refer to: http://libint.valeyev.net

 Your ORCA version has been built with support for libXC version: 4.2.3
 For citations please refer to: https://tddft.org/programs/libxc/

 This ORCA versions uses:
   CBLAS   interface :  Fast vector & matrix operations
   LAPACKE interface :  Fast linear algebra routines
   SCALAPACK package :  Parallel linear algebra routines


Your calculation utilizes the atom-pairwise dispersion correction
with the Becke-Johnson damping scheme (D3BJ)
Cite in your paper:
S.Grimme, S.Ehrlich, L.Goerigk, J Comput Chem, (2011), 32, 1456–1465 
S.Grimme, J.Antony, S.Ehrlich and H.Krieg, J.Chem.Phys., 132, (2010), 154104 
   

----- Orbital basis set information -----
Your calculation utilizes the basis: aug-cc-pV(T+d)Z 
             Al - Ar: T.H. Dunning, Jr., K. A. Peterson and A. K. Wilson, J. Chem. Phys.
                      114, 9244 (2001)

----- AuxJK basis set information -----
Your calculation utilizes the auxiliary basis: def2/JK
   H-Ba, Hf-Rn: F. Weigend, J. Comput. Chem. 29, 167 (2008).

================================================================================
                                        WARNINGS
                       Please study these warnings very carefully!
================================================================================


WARNING: Geometry Optimization
  ===> : Switching off AutoStart
         For restart on a previous wavefunction, please use MOREAD

INFO   : the flag for use of LIBINT has been found!

================================================================================
                                       INPUT FILE
================================================================================
NAME = 07_H2O_6_book.in
|  1> #
|  2> # 07_H2O_6_book tpssh/aug-cc-pvt(+d)z
|  3> #
|  4> ! tpssh d3bj aug-cc-pvt(+d)z def2/jk grid4 nofinalgrid opt xyzfile numfreq
|  5> 
|  6> *xyz 0 1
|  7> O	0.116757	1.553296	0.874144
|  8> H	0.955357	1.526953	0.36374
|  9> H	0.278593	2.140101	1.61497
| 10> O	-0.028991	-1.36957	0.910464
| 11> H	-0.055528	-0.424567	1.109294
| 12> H	-0.872074	-1.539194	0.457007
| 13> O	-2.340721	1.363977	-0.433023
| 14> H	-1.482171	1.543988	-0.013805
| 15> H	-2.349173	1.886417	-1.236377
| 16> O	-2.490803	-1.41279	-0.437012
| 17> H	-2.562332	-0.444637	-0.504051
| 18> H	-3.290032	-1.695404	0.010212
| 19> O	2.424786	1.214249	-0.477895
| 20> H	2.508896	0.237506	-0.500154
| 21> H	2.55493	1.502809	-1.382466
| 22> O	2.31194	-1.486888	-0.434852
| 23> H	1.449966	-1.577886	0.025804
| 24> H	2.919833	-2.054267	0.041233
| 25> *
| 26> 
| 27> %maxcore 5000
| 28> 
| 29> %pal
| 30> nprocs 24
| 31> end
| 32> 
| 33> 
| 34>                          ****END OF INPUT****
================================================================================

                       *****************************
                       * Geometry Optimization Run *
                       *****************************

Geometry optimization settings:
Update method            Update   .... BFGS
Choice of coordinates    CoordSys .... Z-matrix Internals
Initial Hessian          InHess   .... Almoef's Model

Convergence Tolerances:
Energy Change            TolE     ....  5.0000e-06 Eh
Max. Gradient            TolMAXG  ....  3.0000e-04 Eh/bohr
RMS Gradient             TolRMSG  ....  1.0000e-04 Eh/bohr
Max. Displacement        TolMAXD  ....  4.0000e-03 bohr
RMS Displacement         TolRMSD  ....  2.0000e-03 bohr
Strict Convergence                ....  False
------------------------------------------------------------------------------
                        ORCA OPTIMIZATION COORDINATE SETUP
------------------------------------------------------------------------------

The optimization will be done in new redundant internal coordinates
Making redundant internal coordinates   ...  (new redundants) done
Evaluating the initial hessian          ...  (Almloef) done
Evaluating the coordinates              ...  done
Calculating the B-matrix                .... done
Calculating the G-matrix                .... done
Diagonalizing the G-matrix              .... done
The first mode is                       ....  119
The number of degrees of freedom        ....   48

    -----------------------------------------------------------------
                    Redundant Internal Coordinates


    -----------------------------------------------------------------
         Definition                    Initial Value    Approx d2E/dq
    -----------------------------------------------------------------
      1. B(H   1,O   0)                  0.9821         0.479468   
      2. B(H   2,O   0)                  0.9588         0.522197   
      3. B(H   4,O   3)                  0.9661         0.508512   
      4. B(H   4,O   0)                  1.9992         0.011427   
      5. B(H   5,O   3)                  0.9722         0.497156   
      6. B(H   7,O   6)                  0.9722         0.497089   
      7. B(H   7,O   0)                  1.8290         0.021359   
      8. B(H   8,O   6)                  0.9583         0.523160   
      9. B(O   9,H   5)                  1.8535         0.019517   
     10. B(H  10,O   9)                  0.9731         0.495519   
     11. B(H  10,H   7)                  2.3155         0.000764   
     12. B(H  10,H   5)                  2.2313         0.001041   
     13. B(H  10,O   6)                  1.8235         0.021791   
     14. B(H  11,O   9)                  0.9585         0.522905   
     15. B(O  12,H   1)                  1.7220         0.031638   
     16. B(H  13,H   1)                  2.1960         0.001186   
     17. B(H  13,O  12)                  0.9806         0.482041   
     18. B(H  14,O  12)                  0.9584         0.523099   
     19. B(O  15,H  13)                  1.7368         0.029963   
     20. B(H  16,O  15)                  0.9816         0.480341   
     21. B(H  16,H   4)                  2.1842         0.001238   
     22. B(H  16,O   3)                  1.7359         0.030066   
     23. B(H  16,H  13)                  2.1665         0.001321   
     24. B(H  17,O  15)                  0.9582         0.523443   
     25. A(H   1,O   0,H   7)          119.6074         0.199991   
     26. A(H   1,O   0,H   2)          105.8933         0.317823   
     27. A(H   2,O   0,H   7)          121.7208         0.202157   
     28. A(H   2,O   0,H   4)          121.9466         0.187219   
     29. A(H   1,O   0,H   4)           96.2104         0.185339   
     30. A(H   4,O   0,H   7)           88.6667         0.136641   
     31. A(O   0,H   1,H  13)          145.5171         0.135671   
     32. A(O  12,H   1,H  13)           25.5029         0.114226   
     33. A(O   0,H   1,O  12)          170.9471         0.210313   
     34. A(H   4,O   3,H  16)          104.2222         0.210528   
     35. A(H   4,O   3,H   5)          104.0546         0.318325   
     36. A(H   5,O   3,H  16)          118.6979         0.209909   
     37. A(O   0,H   4,O   3)          160.2499         0.186630   
     38. A(O   3,H   4,H  16)           50.3900         0.136764   
     39. A(O   0,H   4,H  16)          113.8689         0.109231   
     40. A(O   3,H   5,H  10)          140.5539         0.134695   
     41. A(O   3,H   5,O   9)          166.0271         0.198643   
     42. A(O   9,H   5,H  10)           25.4751         0.110959   
     43. A(H   7,O   6,H   8)          105.5637         0.319796   
     44. A(H   8,O   6,H  10)          120.4626         0.202717   
     45. A(H   7,O   6,H  10)          107.9236         0.201409   
     46. A(O   6,H   7,H  10)           48.5295         0.131602   
     47. A(O   0,H   7,H  10)          120.9955         0.109896   
     48. A(O   0,H   7,O   6)          169.1964         0.200902   
     49. A(H   5,O   9,H  10)           99.5131         0.198562   
     50. A(H   5,O   9,H  11)          118.8861         0.199904   
     51. A(H  10,O   9,H  11)          105.3202         0.319606   
     52. A(H   5,H  10,H   7)           88.6664         0.097533   
     53. A(H   7,H  10,O   9)          143.6656         0.131572   
     54. A(H   5,H  10,O   6)          112.1913         0.111514   
     55. A(O   6,H  10,O   9)          167.2030         0.201328   
     56. A(H   5,H  10,O   9)           55.0117         0.134661   
     57. A(O   6,H  10,H   7)           23.5469         0.109991   
     58. A(H  13,O  12,H  14)          105.4762         0.318190   
     59. A(H   1,O  12,H  14)          121.5014         0.212728   
     60. A(H   1,O  12,H  13)          105.3765         0.210460   
     61. A(O  12,H  13,O  15)          168.0537         0.208973   
     62. A(H   1,H  13,O  12)           49.1206         0.135728   
     63. A(O  15,H  13,H  16)           26.2981         0.114537   
     64. A(H   1,H  13,H  16)           92.9083         0.098946   
     65. A(O  12,H  13,H  16)          141.9253         0.136889   
     66. A(H   1,H  13,O  15)          119.2064         0.113917   
     67. A(H  13,O  15,H  17)          122.3194         0.211231   
     68. A(H  13,O  15,H  16)          102.0796         0.208877   
     69. A(H  16,O  15,H  17)          105.6076         0.318041   
     70. A(H   4,H  16,H  13)           90.8519         0.099044   
     71. A(H   4,H  16,O  15)          142.1056         0.136152   
     72. A(O   3,H  16,H  13)          116.0783         0.114556   
     73. A(O   3,H  16,O  15)          167.4803         0.208971   
     74. A(H  13,H  16,O  15)           51.6223         0.136851   
     75. A(O   3,H  16,H   4)           25.3878         0.114183   
     76. D(H  13,H   1,O   0,H   4)     -0.0057         0.339672   
     77. D(O  12,H   1,O   0,H   2)    119.4034         0.339672   
     78. D(H  13,H   1,O   0,H   7)    -92.0066         0.339672   
     79. D(O  12,H   1,O   0,H   7)    -98.3574         0.339672   
     80. D(H  13,H   1,O   0,H   2)    125.7542         0.339672   
     81. D(O  12,H   1,O   0,H   4)     -6.3565         0.339672   
     82. D(O   0,H   4,O   3,H  16)     41.3569         0.362059   
     83. D(O   3,H   4,O   0,H   7)     79.9443         0.001582   
     84. D(H  16,H   4,O   0,H   1)     -5.8729         0.001582   
     85. D(H  16,H   4,O   0,H   2)   -118.9822         0.001582   
     86. D(H  16,H   4,O   0,H   7)    113.7687         0.001582   
     87. D(O   0,H   4,O   3,H   5)    -83.6804         0.362059   
     88. D(O   3,H   4,O   0,H   2)   -152.8066         0.001582   
     89. D(H  16,H   4,O   3,H   5)   -125.0373         0.362059   
     90. D(O   3,H   4,O   0,H   1)    -39.6973         0.001582   
     91. D(H  10,H   5,O   3,H  16)   -101.7980         0.341576   
     92. D(H  10,H   5,O   3,H   4)     13.4018         0.341576   
     93. D(O   9,H   5,O   3,H  16)   -101.0106         0.341576   
     94. D(O   9,H   5,O   3,H   4)     14.1891         0.341576   
     95. D(H  10,H   7,O   6,H   8)   -130.0312         0.341457   
     96. D(O   0,H   7,O   6,H  10)    -15.2180         0.341457   
     97. D(O   0,H   7,O   6,H   8)   -145.2492         0.341457   
     98. D(H  10,H   7,O   0,H   2)   -132.9859         0.001794   
     99. D(O   6,H   7,O   0,H   4)      7.7115         0.001794   
    100. D(O   6,H   7,O   0,H   1)    104.0979         0.001794   
    101. D(H  10,H   7,O   0,H   1)     90.8334         0.001794   
    102. D(O   6,H   7,O   0,H   2)   -119.7214         0.001794   
    103. D(H  10,H   7,O   0,H   4)     -5.5530         0.001794   
    104. D(H  11,O   9,H   5,O   3)   -114.6425         0.001723   
    105. D(H  10,O   9,H   5,O   3)     -1.1631         0.001723   
    106. D(H  11,O   9,H   5,H  10)   -113.4795         0.001723   
    107. D(H   7,H  10,O   9,H   5)      1.7205         0.369656   
    108. D(H   7,H  10,O   9,H  11)    125.3459         0.369656   
    109. D(O   6,H  10,O   9,H   5)     -0.1072         0.369656   
    110. D(O   6,H  10,O   9,H  11)    123.5182         0.369656   
    111. D(O   6,H  10,H   7,O   0)    176.7095         0.001507   
    112. D(H   5,H  10,H   7,O   6)   -177.5769         0.001507   
    113. D(H   5,H  10,O   6,H   7)      2.6164         0.001806   
    114. D(H   7,H  10,O   6,H   8)    121.1578         0.001806   
    115. D(H   5,H  10,O   6,H   8)    123.7742         0.001806   
    116. D(O   9,H  10,H   7,O   0)     -2.2773         0.001507   
    117. D(O   9,H  10,O   6,H   8)    123.8690         0.001806   
    118. D(O   9,H  10,O   6,H   7)      2.7112         0.001806   
    119. D(H   7,H  10,H   5,O   9)   -178.9804         0.001512   
    120. D(H   5,H  10,H   7,O   0)     -0.8674         0.001507   
    121. D(H   5,H  10,O   9,H  11)    123.6254         0.369656   
    122. D(O   9,H  10,H   7,O   6)   -178.9868         0.001507   
    123. D(H   7,H  10,H   5,O   3)      0.5776         0.001512   
    124. D(O   6,H  10,H   5,O   9)    179.9744         0.001512   
    125. D(O   6,H  10,H   5,O   3)     -0.4676         0.001512   
    126. D(O   9,H  10,H   5,O   3)    179.5580         0.001512   
    127. D(H  14,O  12,H   1,H  13)    119.5452         0.002109   
    128. D(H  14,O  12,H   1,O   0)    127.9087         0.002109   
    129. D(H  13,O  12,H   1,O   0)      8.3635         0.002109   
    130. D(O  15,H  13,O  12,H   1)     13.2536         0.344366   
    131. D(O  15,H  13,O  12,H  14)   -116.4227         0.344366   
    132. D(H   1,H  13,O  12,H  14)   -129.6763         0.344366   
    133. D(H  16,H  13,H   1,O  12)   -176.8885         0.001515   
    134. D(H  16,H  13,H   1,O   0)      5.4282         0.001515   
    135. D(O  15,H  13,H   1,O  12)   -176.8834         0.001515   
    136. D(O  15,H  13,H   1,O   0)      5.4333         0.001515   
    137. D(H  16,H  13,O  12,H  14)   -124.6333         0.344366   
    138. D(O  12,H  13,H   1,O   0)   -177.6833         0.001515   
    139. D(H  16,H  13,O  12,H   1)      5.0430         0.344366   
    140. D(H  17,O  15,H  13,H  16)   -117.4498         0.002093   
    141. D(H  17,O  15,H  13,H   1)   -117.4613         0.002093   
    142. D(H  17,O  15,H  13,O  12)   -128.9157         0.002093   
    143. D(H  16,O  15,H  13,H   1)     -0.0115         0.002093   
    144. D(H  16,O  15,H  13,O  12)    -11.4659         0.002093   
    145. D(H   4,H  16,O  15,H  13)     -9.3773         0.341260   
    146. D(O   3,H  16,O  15,H  13)    -11.5766         0.341260   
    147. D(O   3,H  16,O  15,H  17)    117.2864         0.341260   
    148. D(H  13,H  16,O  15,H  17)    128.8630         0.341260   
    149. D(H   4,H  16,H  13,H   1)     -5.7542         0.001520   
    150. D(H   4,H  16,H  13,O  12)     -9.5700         0.001520   
    151. D(O   3,H  16,H  13,O  15)    177.2239         0.001520   
    152. D(O   3,H  16,H  13,H   1)     -2.7861         0.001520   
    153. D(O   3,H  16,H  13,O  12)     -6.6019         0.001520   
    154. D(O  15,H  16,H  13,H   1)    179.9900         0.001520   
    155. D(O  15,H  16,H  13,O  12)    176.1742         0.001520   
    156. D(O   3,H  16,H   4,O   0)   -165.8677         0.001517   
    157. D(H  13,H  16,H   4,O   0)      7.9048         0.001517   
    158. D(H  13,H  16,H   4,O   3)    173.7725         0.001517   
    159. D(O  15,H  16,H   4,O   0)     15.2440         0.001517   
    160. D(O  15,H  16,H   4,O   3)   -178.8882         0.001517   
    161. D(H   4,H  16,H  13,O  15)    174.2558         0.001520   
    162. D(H   4,H  16,O   3,H   5)    115.1099         0.002098   
    163. D(H  13,H  16,O   3,H   5)    108.1740         0.002098   
    164. D(H  13,H  16,O   3,H   4)     -6.9359         0.002098   
    165. D(H   4,H  16,O  15,H  17)    119.4857         0.341260   
    166. D(O  15,H  16,O   3,H   5)    118.2613         0.002098   
    167. D(O  15,H  16,O   3,H   4)      3.1515         0.002098   
    -----------------------------------------------------------------

Number of atoms                         .... 18
Number of degrees of freedom            .... 167

         *************************************************************
         *                GEOMETRY OPTIMIZATION CYCLE   1            *
         *************************************************************
---------------------------------
CARTESIAN COORDINATES (ANGSTROEM)
---------------------------------
  O      0.116757    1.553296    0.874144
  H      0.955357    1.526953    0.363740
  H      0.278593    2.140101    1.614970
  O     -0.028991   -1.369570    0.910464
  H     -0.055528   -0.424567    1.109294
  H     -0.872074   -1.539194    0.457007
  O     -2.340721    1.363977   -0.433023
  H     -1.482171    1.543988   -0.013805
  H     -2.349173    1.886417   -1.236377
  O     -2.490803   -1.412790   -0.437012
  H     -2.562332   -0.444637   -0.504051
  H     -3.290032   -1.695404    0.010212
  O      2.424786    1.214249   -0.477895
  H      2.508896    0.237506   -0.500154
  H      2.554930    1.502809   -1.382466
  O      2.311940   -1.486888   -0.434852
  H      1.449966   -1.577886    0.025804
  H      2.919833   -2.054267    0.041233

----------------------------
CARTESIAN COORDINATES (A.U.)
----------------------------
  NO LB      ZA    FRAG     MASS         X           Y           Z
   0 O     8.0000    0    15.999    0.220639    2.935304    1.651893
   1 H     1.0000    0     1.008    1.805363    2.885523    0.687369
   2 H     1.0000    0     1.008    0.526464    4.044205    3.051851
   3 O     8.0000    0    15.999   -0.054785   -2.588112    1.720528
   4 H     1.0000    0     1.008   -0.104933   -0.802315    2.096262
   5 H     1.0000    0     1.008   -1.647981   -2.908655    0.863618
   6 O     8.0000    0    15.999   -4.423322    2.577543   -0.818295
   7 H     1.0000    0     1.008   -2.800897    2.917714   -0.026088
   8 H     1.0000    0     1.008   -4.439294    3.564812   -2.336414
   9 O     8.0000    0    15.999   -4.706936   -2.669786   -0.825833
  10 H     1.0000    0     1.008   -4.842106   -0.840242   -0.952518
  11 H     1.0000    0     1.008   -6.217259   -3.203849    0.019298
  12 O     8.0000    0    15.999    4.582181    2.294598   -0.903091
  13 H     1.0000    0     1.008    4.741126    0.448821   -0.945154
  14 H     1.0000    0     1.008    4.828118    2.839897   -2.612482
  15 O     8.0000    0    15.999    4.368933   -2.809811   -0.821751
  16 H     1.0000    0     1.008    2.740039   -2.981772    0.048762
  17 H     1.0000    0     1.008    5.517685   -3.882002    0.077919

--------------------------------
INTERNAL COORDINATES (ANGSTROEM)
--------------------------------
 O      0   0   0     0.000000000000     0.00000000     0.00000000
 H      1   0   0     0.982067287341     0.00000000     0.00000000
 H      1   2   0     0.958829578808   105.89325923     0.00000000
 O      1   2   3     2.926722958508    91.27121310   230.15359168
 H      4   1   2     0.966058099328    13.34597984   140.56968714
 H      4   1   2     0.972205995206   102.21849031   239.98902584
 O      1   2   3     2.789932861223   120.45305600   146.45374593
 H      7   1   2     0.972242662171     7.05835468   281.98792720
 H      7   1   2     0.958328043636   111.31762838   318.10503051
 O      6   4   1     1.853518685910   166.02711390     0.61250431
 H     10   6   4     0.973103723542    99.51313706   358.83694273
 H     10   6   4     0.958460731388   118.88606425   245.35748984
 O      2   1   3     1.722020572143   170.94714904   119.40344896
 H     13   2   1     0.980610444178   105.37651580     8.36351624
 H     13   2   1     0.958359550679   121.50142387   127.90872660
 O     14  13   2     1.736833522355   168.05371103    13.25357471
 H     16  14  13     0.981572087529   102.07957252   348.53406319
 H     16  14  13     0.958180440374   122.31942840   231.08426767

---------------------------
INTERNAL COORDINATES (A.U.)
---------------------------
 O      0   0   0     0.000000000000     0.00000000     0.00000000
 H      1   0   0     1.855838218157     0.00000000     0.00000000
 H      1   2   0     1.811925313050   105.89325923     0.00000000
 O      1   2   3     5.530704861441    91.27121310   230.15359168
 H      4   1   2     1.825585237187    13.34597984   140.56968714
 H      4   1   2     1.837203076695   102.21849031   239.98902584
 O      1   2   3     5.272209039739   120.45305600   146.45374593
 H      7   1   2     1.837272367217     7.05835468   281.98792720
 H      7   1   2     1.810977548929   111.31762838   318.10503051
 O      6   4   1     3.502642700476   166.02711390     0.61250431
 H     10   6   4     1.838899537393    99.51313706   358.83694273
 H     10   6   4     1.811228292441   118.88606425   245.35748984
 O      2   1   3     3.254147278328   170.94714904   119.40344896
 H     13   2   1     1.853085183558   105.37651580     8.36351624
 H     13   2   1     1.811037088610   121.50142387   127.90872660
 O     14  13   2     3.282139697465   168.05371103    13.25357471
 H     16  14  13     1.854902426131   102.07957252   348.53406319
 H     16  14  13     1.810698619187   122.31942840   231.08426767

---------------------
BASIS SET INFORMATION
---------------------
There are 2 groups of distinct atoms

 Group   1 Type O   : 19s6p3d2f contracted to 5s4p3d2f pattern {88111/3111/111/11}
 Group   2 Type H   : 6s3p2d contracted to 4s3p2d pattern {3111/111/11}

Atom   0O    basis set group =>   1
Atom   1H    basis set group =>   2
Atom   2H    basis set group =>   2
Atom   3O    basis set group =>   1
Atom   4H    basis set group =>   2
Atom   5H    basis set group =>   2
Atom   6O    basis set group =>   1
Atom   7H    basis set group =>   2
Atom   8H    basis set group =>   2
Atom   9O    basis set group =>   1
Atom  10H    basis set group =>   2
Atom  11H    basis set group =>   2
Atom  12O    basis set group =>   1
Atom  13H    basis set group =>   2
Atom  14H    basis set group =>   2
Atom  15O    basis set group =>   1
Atom  16H    basis set group =>   2
Atom  17H    basis set group =>   2
----------------------------------
AUXILIARY/JK BASIS SET INFORMATION
----------------------------------
There are 2 groups of distinct atoms

 Group   1 Type O   : 14s10p6d2f1g contracted to 10s8p4d2f1g pattern {5111111111/31111111/3111/11/1}
 Group   2 Type H   : 4s2p2d contracted to 2s2p2d pattern {31/11/11}

Atom   0O    basis set group =>   1
Atom   1H    basis set group =>   2
Atom   2H    basis set group =>   2
Atom   3O    basis set group =>   1
Atom   4H    basis set group =>   2
Atom   5H    basis set group =>   2
Atom   6O    basis set group =>   1
Atom   7H    basis set group =>   2
Atom   8H    basis set group =>   2
Atom   9O    basis set group =>   1
Atom  10H    basis set group =>   2
Atom  11H    basis set group =>   2
Atom  12O    basis set group =>   1
Atom  13H    basis set group =>   2
Atom  14H    basis set group =>   2
Atom  15O    basis set group =>   1
Atom  16H    basis set group =>   2
Atom  17H    basis set group =>   2


           ************************************************************
           *        Program running with 24 parallel MPI-processes    *
           *              working on a common directory               *
           ************************************************************
------------------------------------------------------------------------------
                           ORCA GTO INTEGRAL CALCULATION
------------------------------------------------------------------------------

                         BASIS SET STATISTICS AND STARTUP INFO

 # of primitive gaussian shells          ...  312
 # of primitive gaussian functions       ...  696
 # of contracted shells                  ...  192
 # of contracted basis functions         ...  552
 Highest angular momentum                ...    3
 Maximum contraction depth               ...    8
 Integral package used                   ... LIBINT
 Integral threshhold            Thresh   ...  2.500e-11
 Primitive cut-off              TCut     ...  2.500e-12


------------------------------ INTEGRAL EVALUATION ----------------------------


 * One electron integrals 
 Pre-screening matrix                    ... done
 Shell pair data                         ... done (   0.006 sec)



           ************************************************************
           *        Program running with 24 parallel MPI-processes    *
           *              working on a common directory               *
           ************************************************************
-------------------------------------------------------------------------------
                                 ORCA SCF
-------------------------------------------------------------------------------

------------
SCF SETTINGS
------------
Hamiltonian:
 Density Functional     Method          .... DFT(GTOs)
 Exchange Functional    Exchange        .... TPSS
 Correlation Functional Correlation     .... TPSS
 LDA part of GGA corr.  LDAOpt          .... PW91-LDA
 Gradients option       PostSCFGGA      .... off
 Hybrid DFT is turned on
   Fraction HF Exchange ScalHFX         ....  0.100000
   Scaling of DF-GGA-X  ScalDFX         ....  0.900000
   Scaling of DF-GGA-C  ScalDFC         ....  1.000000
   Scaling of DF-LDA-C  ScalLDAC        ....  1.000000
   Perturbative correction              ....  0.000000
   Density functional embedding theory  .... OFF
   NL short-range parameter             ....  5.200000


General Settings:
 Integral files         IntName         .... 07_H2O_6_book
 Hartree-Fock type      HFTyp           .... RHF
 Total Charge           Charge          ....    0
 Multiplicity           Mult            ....    1
 Number of Electrons    NEL             ....   60
 Basis Dimension        Dim             ....  552
 Nuclear Repulsion      ENuc            ....    284.3088335758 Eh

Convergence Acceleration:
 DIIS                   CNVDIIS         .... on
   Start iteration      DIISMaxIt       ....    12
   Startup error        DIISStart       ....  0.200000
   # of expansion vecs  DIISMaxEq       ....     5
   Bias factor          DIISBfac        ....   1.050
   Max. coefficient     DIISMaxC        ....  10.000
 Newton-Raphson         CNVNR           .... off
 SOSCF                  CNVSOSCF        .... on
   Start iteration      SOSCFMaxIt      ....   150
   Startup grad/error   SOSCFStart      ....  0.003300
 Level Shifting         CNVShift        .... on
   Level shift para.    LevelShift      ....    0.2500
   Turn off err/grad.   ShiftErr        ....    0.0010
 Zerner damping         CNVZerner       .... off
 Static damping         CNVDamp         .... on
   Fraction old density DampFac         ....    0.7000
   Max. Damping (<1)    DampMax         ....    0.9800
   Min. Damping (>=0)   DampMin         ....    0.0000
   Turn off err/grad.   DampErr         ....    0.1000
 Fernandez-Rico         CNVRico         .... off

SCF Procedure:
 Maximum # iterations   MaxIter         ....   125
 SCF integral mode      SCFMode         .... Direct
   Integral package                     .... LIBINT
 Reset frequency        DirectResetFreq ....    20
 Integral Threshold     Thresh          ....  2.500e-11 Eh
 Primitive CutOff       TCut            ....  2.500e-12 Eh

Convergence Tolerance:
 Convergence Check Mode ConvCheckMode   .... Total+1el-Energy
 Convergence forced     ConvForced      .... 0
 Energy Change          TolE            ....  1.000e-08 Eh
 1-El. energy change                    ....  1.000e-05 Eh
 Orbital Gradient       TolG            ....  1.000e-05
 Orbital Rotation angle TolX            ....  1.000e-05
 DIIS Error             TolErr          ....  5.000e-07


Diagonalization of the overlap matrix:
Smallest eigenvalue                        ... 3.910e-05
Time for diagonalization                   ...    0.040 sec
Threshold for overlap eigenvalues          ... 1.000e-08
Number of eigenvalues below threshold      ... 0
Time for construction of square roots      ...    0.048 sec
Total time needed                          ...    0.089 sec

-------------------
DFT GRID GENERATION
-------------------

General Integration Accuracy     IntAcc      ...  4.670
Radial Grid Type                 RadialGrid  ... Gauss-Chebyshev
Angular Grid (max. acc.)         AngularGrid ... Lebedev-302
Angular grid pruning method      GridPruning ... 3 (G Style)
Weight generation scheme         WeightScheme... Becke
Basis function cutoff            BFCut       ...    1.0000e-11
Integration weight cutoff        WCut        ...    1.0000e-14
Grids for H and He will be reduced by one unit

# of grid points (after initial pruning)     ...  78000 (   0.0 sec)
# of grid points (after weights+screening)   ...  72363 (   0.0 sec)
nearest neighbour list constructed           ...    0.0 sec
Grid point re-assignment to atoms done       ...    0.0 sec
Grid point division into batches done        ...    0.2 sec
Reduced shell lists constructed in    0.2 sec

Total number of grid points                  ...    72363
Total number of batches                      ...     1140
Average number of points per batch           ...       63
Average number of grid points per atom       ...     4020
Average number of shells per batch           ...   142.39 (74.16%)
Average number of basis functions per batch  ...   398.02 (72.11%)
Average number of large shells per batch     ...   115.82 (81.34%)
Average number of large basis fcns per batch ...   317.00 (79.64%)
Maximum spatial batch extension              ...   2.10,  2.67,  2.00 au
Average spatial batch extension              ...   0.04,  0.04,  0.04 au

Time for grid setup =    0.408 sec

------------------------------
INITIAL GUESS: MODEL POTENTIAL
------------------------------
Loading Hartree-Fock densities                     ... done
Calculating cut-offs                               ... done
Setting up the integral package                    ... done
Initializing the effective Hamiltonian             ... done
Starting the Coulomb interaction                   ... done (   0.0 sec)
Reading the grid                                   ... done
Mapping shells                                     ... done
Starting the XC term evaluation                    ... done (   0.2 sec)
  promolecular density results
     # of electrons  =     59.994928870
     EX              =    -52.455807986
     EC              =     -1.943784478
     EX+EC           =    -54.399592464
Transforming the Hamiltonian                       ... done (   0.0 sec)
Diagonalizing the Hamiltonian                      ... done (   0.0 sec)
Back transforming the eigenvectors                 ... done (   0.0 sec)
Now organizing SCF variables                       ... done
                      ------------------
                      INITIAL GUESS DONE (   0.8 sec)
                      ------------------
--------------
SCF ITERATIONS
--------------
ITER       Energy         Delta-E        Max-DP      RMS-DP      [F,P]     Damp
               ***  Starting incremental Fock matrix formation  ***
  0   -458.3743734342   0.000000000000 0.09933776  0.00097561  0.3203197 0.7000
  1   -458.5978176560  -0.223444221816 0.04742924  0.00055803  0.1256322 0.7000
                               ***Turning on DIIS***
  2   -458.6668869366  -0.069069280573 0.05377974  0.00070433  0.0282895 0.0000
  3   -458.7918607294  -0.124973792791 0.01814265  0.00027675  0.0736074 0.0000
  4   -458.8161874805  -0.024326751106 0.00318953  0.00006157  0.0154000 0.0000
  5   -458.8173448394  -0.001157358881 0.00275987  0.00002641  0.0037551 0.0000
                      *** Initiating the SOSCF procedure ***
                           *** Shutting down DIIS ***
                      *** Re-Reading the Fockian *** 
                      *** Removing any level shift *** 
ITER      Energy       Delta-E        Grad      Rot      Max-DP    RMS-DP
  6   -458.81741258  -0.0000677369  0.000244  0.000244  0.001156  0.000016
               *** Restarting incremental Fock matrix formation ***
  7   -458.81742636  -0.0000137820  0.000105  0.000310  0.001106  0.000014
  8   -458.81742714  -0.0000007846  0.000065  0.000084  0.000421  0.000006
  9   -458.81742765  -0.0000005081  0.000024  0.000078  0.000333  0.000004
 10   -458.81742777  -0.0000001176  0.000010  0.000014  0.000029  0.000000
 11   -458.81742777   0.0000000001  0.000013  0.000007  0.000030  0.000000
                  ***Gradient check signals convergence***
              ***Rediagonalizing the Fockian in SOSCF/NRSCF***

               *****************************************************
               *                     SUCCESS                       *
               *           SCF CONVERGED AFTER  12 CYCLES          *
               *****************************************************


----------------
TOTAL SCF ENERGY
----------------

Total Energy       :         -458.81742778 Eh          -12485.05694 eV

Components:
Nuclear Repulsion  :          284.30883358 Eh            7736.43667 eV
Electronic Energy  :         -743.12626135 Eh          -20221.49361 eV
One Electron Energy:        -1196.82968444 Eh          -32567.39141 eV
Two Electron Energy:          453.70342308 Eh           12345.89780 eV

Virial components:
Potential Energy   :         -915.46909594 Eh          -24911.18056 eV
Kinetic Energy     :          456.65166816 Eh           12426.12362 eV
Virial Ratio       :            2.00474270


DFT components:
N(Alpha)           :       30.000162006910 electrons
N(Beta)            :       30.000162006910 electrons
N(Total)           :       60.000324013819 electrons
E(X)               :      -48.697550426321 Eh       
E(C)               :       -1.997271902634 Eh       
E(XC)              :      -50.694822328955 Eh       
DFET-embed. en.    :        0.000000000000 Eh       

---------------
SCF CONVERGENCE
---------------

  Last Energy change         ...   -8.2087e-09  Tolerance :   1.0000e-08
  Last MAX-Density change    ...    1.9865e-05  Tolerance :   1.0000e-07
  Last RMS-Density change    ...    1.9962e-07  Tolerance :   5.0000e-09
  Last Orbital Gradient      ...    7.9279e-07  Tolerance :   1.0000e-05
  Last Orbital Rotation      ...    2.2730e-06  Tolerance :   1.0000e-05

             **** THE GBW FILE WAS UPDATED (07_H2O_6_book.gbw) ****
             **** DENSITY FILE WAS UPDATED (07_H2O_6_book.scfp) ****
             **** ENERGY FILE WAS UPDATED (07_H2O_6_book.en.tmp) ****
             **** THE GBW FILE WAS UPDATED (07_H2O_6_book.gbw) ****
             **** DENSITY FILE WAS UPDATED (07_H2O_6_book.scfp) ****
----------------
ORBITAL ENERGIES
----------------

  NO   OCC          E(Eh)            E(eV) 
   0   2.0000     -19.070312      -518.9296 
   1   2.0000     -19.059207      -518.6274 
   2   2.0000     -19.057777      -518.5885 
   3   2.0000     -19.047073      -518.2972 
   4   2.0000     -19.046783      -518.2893 
   5   2.0000     -19.033696      -517.9332 
   6   2.0000      -1.011942       -27.5363 
   7   2.0000      -0.998200       -27.1624 
   8   2.0000      -0.993701       -27.0400 
   9   2.0000      -0.985033       -26.8041 
  10   2.0000      -0.981069       -26.6963 
  11   2.0000      -0.966124       -26.2896 
  12   2.0000      -0.532814       -14.4986 
  13   2.0000      -0.521875       -14.2009 
  14   2.0000      -0.518048       -14.0968 
  15   2.0000      -0.507834       -13.8189 
  16   2.0000      -0.503746       -13.7076 
  17   2.0000      -0.489975       -13.3329 
  18   2.0000      -0.419911       -11.4264 
  19   2.0000      -0.394651       -10.7390 
  20   2.0000      -0.383582       -10.4378 
  21   2.0000      -0.371703       -10.1146 
  22   2.0000      -0.359598        -9.7852 
  23   2.0000      -0.339137        -9.2284 
  24   2.0000      -0.314045        -8.5456 
  25   2.0000      -0.302991        -8.2448 
  26   2.0000      -0.301698        -8.2096 
  27   2.0000      -0.292459        -7.9582 
  28   2.0000      -0.288256        -7.8438 
  29   2.0000      -0.279666        -7.6101 
  30   0.0000      -0.028968        -0.7883 
  31   0.0000      -0.006314        -0.1718 
  32   0.0000       0.000060         0.0016 
  33   0.0000       0.002888         0.0786 
  34   0.0000       0.014457         0.3934 
  35   0.0000       0.039001         1.0613 
  36   0.0000       0.041310         1.1241 
  37   0.0000       0.041736         1.1357 
  38   0.0000       0.046957         1.2778 
  39   0.0000       0.053372         1.4523 
  40   0.0000       0.060369         1.6427 
  41   0.0000       0.069316         1.8862 
  42   0.0000       0.079131         2.1533 
  43   0.0000       0.090785         2.4704 
  44   0.0000       0.096495         2.6257 
  45   0.0000       0.097822         2.6619 
  46   0.0000       0.099263         2.7011 
  47   0.0000       0.103137         2.8065 
  48   0.0000       0.106551         2.8994 
  49   0.0000       0.121560         3.3078 
  50   0.0000       0.122584         3.3357 
  51   0.0000       0.134932         3.6717 
  52   0.0000       0.137686         3.7466 
  53   0.0000       0.140862         3.8330 
  54   0.0000       0.149017         4.0550 
  55   0.0000       0.153723         4.1830 
  56   0.0000       0.155697         4.2367 
  57   0.0000       0.164017         4.4631 
  58   0.0000       0.165037         4.4909 
  59   0.0000       0.166970         4.5435 
  60   0.0000       0.173174         4.7123 
  61   0.0000       0.177155         4.8206 
  62   0.0000       0.180336         4.9072 
  63   0.0000       0.186228         5.0675 
  64   0.0000       0.191526         5.2117 
  65   0.0000       0.194263         5.2862 
  66   0.0000       0.204956         5.5771 
  67   0.0000       0.211449         5.7538 
  68   0.0000       0.219219         5.9653 
  69   0.0000       0.232833         6.3357 
  70   0.0000       0.238855         6.4996 
  71   0.0000       0.241539         6.5726 
  72   0.0000       0.245431         6.6785 
  73   0.0000       0.262935         7.1548 
  74   0.0000       0.267849         7.2885 
  75   0.0000       0.271047         7.3756 
  76   0.0000       0.274864         7.4794 
  77   0.0000       0.281097         7.6490 
  78   0.0000       0.285371         7.7653 
  79   0.0000       0.287460         7.8222 
  80   0.0000       0.299242         8.1428 
  81   0.0000       0.306689         8.3454 
  82   0.0000       0.316035         8.5997 
  83   0.0000       0.322445         8.7742 
  84   0.0000       0.326562         8.8862 
  85   0.0000       0.330645         8.9973 
  86   0.0000       0.333193         9.0666 
  87   0.0000       0.337201         9.1757 
  88   0.0000       0.344623         9.3777 
  89   0.0000       0.347411         9.4535 
  90   0.0000       0.351900         9.5757 
  91   0.0000       0.354626         9.6499 
  92   0.0000       0.360896         9.8205 
  93   0.0000       0.366417         9.9707 
  94   0.0000       0.371406        10.1065 
  95   0.0000       0.373255        10.1568 
  96   0.0000       0.376185        10.2365 
  97   0.0000       0.387099        10.5335 
  98   0.0000       0.392848        10.6899 
  99   0.0000       0.396057        10.7773 
 100   0.0000       0.398622        10.8470 
 101   0.0000       0.404075        10.9954 
 102   0.0000       0.408120        11.1055 
 103   0.0000       0.416112        11.3230 
 104   0.0000       0.422297        11.4913 
 105   0.0000       0.430421        11.7124 
 106   0.0000       0.449096        12.2205 
 107   0.0000       0.457672        12.4539 
 108   0.0000       0.466478        12.6935 
 109   0.0000       0.470752        12.8098 
 110   0.0000       0.485138        13.2013 
 111   0.0000       0.486368        13.2347 
 112   0.0000       0.496312        13.5053 
 113   0.0000       0.516109        14.0440 
 114   0.0000       0.530677        14.4405 
 115   0.0000       0.538285        14.6475 
 116   0.0000       0.547390        14.8952 
 117   0.0000       0.549546        14.9539 
 118   0.0000       0.563283        15.3277 
 119   0.0000       0.575854        15.6698 
 120   0.0000       0.598059        16.2740 
 121   0.0000       0.611035        16.6271 
 122   0.0000       0.612303        16.6616 
 123   0.0000       0.633569        17.2403 
 124   0.0000       0.638933        17.3863 
 125   0.0000       0.642059        17.4713 
 126   0.0000       0.646065        17.5803 
 127   0.0000       0.648194        17.6383 
 128   0.0000       0.660393        17.9702 
 129   0.0000       0.673995        18.3403 
 130   0.0000       0.677644        18.4396 
 131   0.0000       0.685291        18.6477 
 132   0.0000       0.690487        18.7891 
 133   0.0000       0.701810        19.0972 
 134   0.0000       0.707665        19.2565 
 135   0.0000       0.713564        19.4171 
 136   0.0000       0.725348        19.7377 
 137   0.0000       0.726124        19.7588 
 138   0.0000       0.732832        19.9414 
 139   0.0000       0.741581        20.1795 
 140   0.0000       0.749887        20.4055 
 141   0.0000       0.758240        20.6328 
 142   0.0000       0.769538        20.9402 
 143   0.0000       0.775819        21.1111 
 144   0.0000       0.781981        21.2788 
 145   0.0000       0.786711        21.4075 
 146   0.0000       0.800457        21.7815 
 147   0.0000       0.807216        21.9655 
 148   0.0000       0.810761        22.0619 
 149   0.0000       0.818443        22.2710 
 150   0.0000       0.825636        22.4667 
 151   0.0000       0.829490        22.5716 
 152   0.0000       0.832875        22.6637 
 153   0.0000       0.840120        22.8608 
 154   0.0000       0.846526        23.0351 
 155   0.0000       0.848565        23.0906 
 156   0.0000       0.849617        23.1193 
 157   0.0000       0.855470        23.2785 
 158   0.0000       0.864680        23.5291 
 159   0.0000       0.867797        23.6139 
 160   0.0000       0.875917        23.8349 
 161   0.0000       0.879288        23.9266 
 162   0.0000       0.889960        24.2170 
 163   0.0000       0.897385        24.4191 
 164   0.0000       0.902268        24.5520 
 165   0.0000       0.907257        24.6877 
 166   0.0000       0.913110        24.8470 
 167   0.0000       0.918727        24.9998 
 168   0.0000       0.927793        25.2465 
 169   0.0000       0.931678        25.3523 
 170   0.0000       0.943436        25.6722 
 171   0.0000       0.954119        25.9629 
 172   0.0000       0.961062        26.1518 
 173   0.0000       0.963477        26.2175 
 174   0.0000       0.970284        26.4028 
 175   0.0000       1.005231        27.3537 
 176   0.0000       1.007670        27.4201 
 177   0.0000       1.021173        27.7875 
 178   0.0000       1.025552        27.9067 
 179   0.0000       1.027696        27.9650 
 180   0.0000       1.033652        28.1271 
 181   0.0000       1.043586        28.3974 
 182   0.0000       1.053095        28.6562 
 183   0.0000       1.056505        28.7490 
 184   0.0000       1.069192        29.0942 
 185   0.0000       1.075167        29.2568 
 186   0.0000       1.090508        29.6742 
 187   0.0000       1.093209        29.7477 
 188   0.0000       1.098115        29.8812 
 189   0.0000       1.098551        29.8931 
 190   0.0000       1.107937        30.1485 
 191   0.0000       1.121328        30.5129 
 192   0.0000       1.123271        30.5657 
 193   0.0000       1.129117        30.7248 
 194   0.0000       1.136536        30.9267 
 195   0.0000       1.143996        31.1297 
 196   0.0000       1.154657        31.4198 
 197   0.0000       1.159802        31.5598 
 198   0.0000       1.171991        31.8915 
 199   0.0000       1.181600        32.1530 
 200   0.0000       1.183273        32.1985 
 201   0.0000       1.196505        32.5586 
 202   0.0000       1.202932        32.7334 
 203   0.0000       1.213119        33.0107 
 204   0.0000       1.219820        33.1930 
 205   0.0000       1.225468        33.3467 
 206   0.0000       1.240447        33.7543 
 207   0.0000       1.252868        34.0923 
 208   0.0000       1.255606        34.1668 
 209   0.0000       1.261953        34.3395 
 210   0.0000       1.276206        34.7273 
 211   0.0000       1.302283        35.4369 
 212   0.0000       1.304522        35.4979 
 213   0.0000       1.320042        35.9202 
 214   0.0000       1.331150        36.2224 
 215   0.0000       1.342931        36.5430 
 216   0.0000       1.345701        36.6184 
 217   0.0000       1.349865        36.7317 
 218   0.0000       1.364314        37.1249 
 219   0.0000       1.378873        37.5210 
 220   0.0000       1.383534        37.6479 
 221   0.0000       1.395817        37.9821 
 222   0.0000       1.397194        38.0196 
 223   0.0000       1.409636        38.3582 
 224   0.0000       1.441301        39.2198 
 225   0.0000       1.444228        39.2994 
 226   0.0000       1.454247        39.5721 
 227   0.0000       1.475721        40.1564 
 228   0.0000       1.477871        40.2149 
 229   0.0000       1.485577        40.4246 
 230   0.0000       1.493208        40.6322 
 231   0.0000       1.521182        41.3935 
 232   0.0000       1.534372        41.7524 
 233   0.0000       1.535680        41.7880 
 234   0.0000       1.548313        42.1317 
 235   0.0000       1.561097        42.4796 
 236   0.0000       1.569058        42.6962 
 237   0.0000       1.579878        42.9907 
 238   0.0000       1.586676        43.1757 
 239   0.0000       1.597114        43.4597 
 240   0.0000       1.608450        43.7682 
 241   0.0000       1.621346        44.1191 
 242   0.0000       1.622292        44.1448 
 243   0.0000       1.636421        44.5293 
 244   0.0000       1.654529        45.0220 
 245   0.0000       1.664254        45.2866 
 246   0.0000       1.674361        45.5617 
 247   0.0000       1.681610        45.7589 
 248   0.0000       1.693963        46.0951 
 249   0.0000       1.722347        46.8675 
 250   0.0000       1.743323        47.4382 
 251   0.0000       1.754319        47.7374 
 252   0.0000       1.767056        48.0840 
 253   0.0000       1.782952        48.5166 
 254   0.0000       1.788985        48.6807 
 255   0.0000       1.813372        49.3443 
 256   0.0000       1.815932        49.4140 
 257   0.0000       1.824460        49.6461 
 258   0.0000       1.835511        49.9468 
 259   0.0000       1.841055        50.0977 
 260   0.0000       1.860602        50.6295 
 261   0.0000       1.873553        50.9820 
 262   0.0000       1.903910        51.8080 
 263   0.0000       1.905306        51.8460 
 264   0.0000       1.930913        52.5428 
 265   0.0000       1.949530        53.0494 
 266   0.0000       1.975533        53.7570 
 267   0.0000       1.991210        54.1836 
 268   0.0000       2.048627        55.7460 
 269   0.0000       2.055878        55.9433 
 270   0.0000       2.106401        57.3181 
 271   0.0000       2.119030        57.6618 
 272   0.0000       2.121250        57.7221 
 273   0.0000       2.138412        58.1892 
 274   0.0000       2.152942        58.5845 
 275   0.0000       2.176735        59.2320 
 276   0.0000       2.182083        59.3775 
 277   0.0000       2.192173        59.6521 
 278   0.0000       2.195286        59.7368 
 279   0.0000       2.211568        60.1798 
 280   0.0000       2.218538        60.3695 
 281   0.0000       2.224175        60.5229 
 282   0.0000       2.238739        60.9192 
 283   0.0000       2.240728        60.9733 
 284   0.0000       2.267979        61.7148 
 285   0.0000       2.279599        62.0310 
 286   0.0000       2.293810        62.4177 
 287   0.0000       2.297157        62.5088 
 288   0.0000       2.304298        62.7031 
 289   0.0000       2.312523        62.9269 
 290   0.0000       2.324235        63.2457 
 291   0.0000       2.336290        63.5737 
 292   0.0000       2.341760        63.7225 
 293   0.0000       2.353263        64.0355 
 294   0.0000       2.371239        64.5247 
 295   0.0000       2.374940        64.6254 
 296   0.0000       2.388520        64.9949 
 297   0.0000       2.400063        65.3090 
 298   0.0000       2.412080        65.6360 
 299   0.0000       2.425914        66.0125 
 300   0.0000       2.442612        66.4668 
 301   0.0000       2.457671        66.8766 
 302   0.0000       2.467234        67.1368 
 303   0.0000       2.482383        67.5491 
 304   0.0000       2.491215        67.7894 
 305   0.0000       2.506589        68.2078 
 306   0.0000       2.515657        68.4545 
 307   0.0000       2.528097        68.7930 
 308   0.0000       2.546213        69.2860 
 309   0.0000       2.561017        69.6888 
 310   0.0000       2.569974        69.9326 
 311   0.0000       2.578982        70.1777 
 312   0.0000       2.582624        70.2768 
 313   0.0000       2.596957        70.6668 
 314   0.0000       2.611777        71.0701 
 315   0.0000       2.623885        71.3995 
 316   0.0000       2.630795        71.5876 
 317   0.0000       2.640439        71.8500 
 318   0.0000       2.666151        72.5497 
 319   0.0000       2.669638        72.6446 
 320   0.0000       2.689020        73.1719 
 321   0.0000       2.692673        73.2714 
 322   0.0000       2.705875        73.6306 
 323   0.0000       2.719600        74.0041 
 324   0.0000       2.728024        74.2333 
 325   0.0000       2.738824        74.5272 
 326   0.0000       2.765889        75.2637 
 327   0.0000       2.771215        75.4086 
 328   0.0000       2.786995        75.8380 
 329   0.0000       2.795255        76.0628 
 330   0.0000       2.806427        76.3668 
 331   0.0000       2.814786        76.5942 
 332   0.0000       2.831680        77.0539 
 333   0.0000       2.841961        77.3337 
 334   0.0000       2.861236        77.8582 
 335   0.0000       2.876525        78.2742 
 336   0.0000       2.888554        78.6015 
 337   0.0000       2.898829        78.8812 
 338   0.0000       2.917821        79.3979 
 339   0.0000       2.939529        79.9886 
 340   0.0000       2.948423        80.2307 
 341   0.0000       2.961772        80.5939 
 342   0.0000       2.975521        80.9681 
 343   0.0000       3.009062        81.8808 
 344   0.0000       3.016850        82.0927 
 345   0.0000       3.048056        82.9418 
 346   0.0000       3.070042        83.5401 
 347   0.0000       3.135819        85.3300 
 348   0.0000       3.609870        98.2296 
 349   0.0000       3.621926        98.5576 
 350   0.0000       3.630914        98.8022 
 351   0.0000       3.663402        99.6862 
 352   0.0000       3.691600       100.4536 
 353   0.0000       3.800657       103.4211 
 354   0.0000       3.819253       103.9272 
 355   0.0000       3.860446       105.0481 
 356   0.0000       3.864711       105.1641 
 357   0.0000       3.876031       105.4722 
 358   0.0000       3.883533       105.6763 
 359   0.0000       3.897633       106.0600 
 360   0.0000       3.903030       106.2068 
 361   0.0000       3.916092       106.5623 
 362   0.0000       3.924225       106.7836 
 363   0.0000       3.933293       107.0303 
 364   0.0000       3.951231       107.5185 
 365   0.0000       3.958535       107.7172 
 366   0.0000       3.990151       108.5775 
 367   0.0000       4.003821       108.9495 
 368   0.0000       4.010277       109.1252 
 369   0.0000       4.016624       109.2979 
 370   0.0000       4.033457       109.7559 
 371   0.0000       4.039828       109.9293 
 372   0.0000       4.050045       110.2073 
 373   0.0000       4.051710       110.2526 
 374   0.0000       4.057711       110.4159 
 375   0.0000       4.063466       110.5725 
 376   0.0000       4.078976       110.9946 
 377   0.0000       4.094791       111.4249 
 378   0.0000       4.102539       111.6358 
 379   0.0000       4.118281       112.0641 
 380   0.0000       4.135480       112.5321 
 381   0.0000       4.149853       112.9232 
 382   0.0000       4.158572       113.1605 
 383   0.0000       4.196889       114.2031 
 384   0.0000       4.226543       115.0101 
 385   0.0000       4.240004       115.3764 
 386   0.0000       4.252739       115.7229 
 387   0.0000       4.273757       116.2948 
 388   0.0000       4.279534       116.4520 
 389   0.0000       4.301284       117.0439 
 390   0.0000       4.308274       117.2341 
 391   0.0000       4.313240       117.3692 
 392   0.0000       4.324685       117.6807 
 393   0.0000       4.335550       117.9763 
 394   0.0000       4.340065       118.0992 
 395   0.0000       4.344449       118.2185 
 396   0.0000       4.358070       118.5891 
 397   0.0000       4.369857       118.9099 
 398   0.0000       4.381213       119.2189 
 399   0.0000       4.400786       119.7515 
 400   0.0000       4.401203       119.7628 
 401   0.0000       4.410120       120.0055 
 402   0.0000       4.423385       120.3664 
 403   0.0000       4.437280       120.7445 
 404   0.0000       4.450697       121.1096 
 405   0.0000       4.460893       121.3871 
 406   0.0000       4.474687       121.7624 
 407   0.0000       4.481206       121.9398 
 408   0.0000       4.497806       122.3915 
 409   0.0000       4.517579       122.9296 
 410   0.0000       4.535375       123.4138 
 411   0.0000       4.565424       124.2315 
 412   0.0000       4.566161       124.2516 
 413   0.0000       4.592796       124.9763 
 414   0.0000       4.613157       125.5304 
 415   0.0000       4.632765       126.0639 
 416   0.0000       4.655962       126.6952 
 417   0.0000       4.690291       127.6293 
 418   0.0000       4.721926       128.4902 
 419   0.0000       4.732703       128.7834 
 420   0.0000       4.756715       129.4368 
 421   0.0000       4.768639       129.7613 
 422   0.0000       4.786213       130.2395 
 423   0.0000       4.822401       131.2242 
 424   0.0000       4.826317       131.3308 
 425   0.0000       4.849496       131.9615 
 426   0.0000       4.879297       132.7724 
 427   0.0000       4.892135       133.1218 
 428   0.0000       4.911202       133.6406 
 429   0.0000       4.935182       134.2931 
 430   0.0000       4.962617       135.0397 
 431   0.0000       4.971925       135.2930 
 432   0.0000       4.983599       135.6106 
 433   0.0000       5.002025       136.1120 
 434   0.0000       5.015338       136.4743 
 435   0.0000       5.020416       136.6125 
 436   0.0000       5.043419       137.2384 
 437   0.0000       5.050433       137.4293 
 438   0.0000       5.056969       137.6071 
 439   0.0000       5.072079       138.0183 
 440   0.0000       5.081107       138.2640 
 441   0.0000       5.100053       138.7795 
 442   0.0000       5.108612       139.0124 
 443   0.0000       5.127244       139.5194 
 444   0.0000       5.154136       140.2512 
 445   0.0000       5.181775       141.0033 
 446   0.0000       5.190499       141.2407 
 447   0.0000       5.231410       142.3539 
 448   0.0000       5.247819       142.8004 
 449   0.0000       5.283715       143.7772 
 450   0.0000       5.316170       144.6603 
 451   0.0000       5.370395       146.1359 
 452   0.0000       5.400156       146.9457 
 453   0.0000       5.413662       147.3132 
 454   0.0000       5.450972       148.3285 
 455   0.0000       5.461019       148.6019 
 456   0.0000       5.532630       150.5505 
 457   0.0000       5.557779       151.2349 
 458   0.0000       5.590634       152.1289 
 459   0.0000       5.597625       152.3191 
 460   0.0000       5.665368       154.1625 
 461   0.0000       5.732868       155.9993 
 462   0.0000       6.007579       163.4745 
 463   0.0000       6.016535       163.7182 
 464   0.0000       6.066287       165.0721 
 465   0.0000       6.077477       165.3766 
 466   0.0000       6.097291       165.9157 
 467   0.0000       6.185309       168.3108 
 468   0.0000       6.187777       168.3780 
 469   0.0000       6.210006       168.9828 
 470   0.0000       6.218387       169.2109 
 471   0.0000       6.244894       169.9322 
 472   0.0000       6.274015       170.7246 
 473   0.0000       6.287638       171.0953 
 474   0.0000       6.480638       176.3471 
 475   0.0000       6.512041       177.2016 
 476   0.0000       6.523484       177.5130 
 477   0.0000       6.544978       178.0979 
 478   0.0000       6.549723       178.2270 
 479   0.0000       6.593957       179.4307 
 480   0.0000       6.609311       179.8485 
 481   0.0000       6.633144       180.4970 
 482   0.0000       6.648594       180.9174 
 483   0.0000       6.662087       181.2846 
 484   0.0000       6.695996       182.2073 
 485   0.0000       6.723018       182.9426 
 486   0.0000       6.801149       185.0687 
 487   0.0000       6.833546       185.9502 
 488   0.0000       6.840921       186.1509 
 489   0.0000       6.844638       186.2521 
 490   0.0000       6.857942       186.6141 
 491   0.0000       6.877187       187.1378 
 492   0.0000       6.883492       187.3093 
 493   0.0000       6.907082       187.9513 
 494   0.0000       6.923268       188.3917 
 495   0.0000       6.927924       188.5184 
 496   0.0000       6.942065       188.9032 
 497   0.0000       6.949234       189.0983 
 498   0.0000       6.968952       189.6348 
 499   0.0000       6.976860       189.8500 
 500   0.0000       6.983979       190.0437 
 501   0.0000       6.992891       190.2862 
 502   0.0000       6.999639       190.4699 
 503   0.0000       7.013173       190.8381 
 504   0.0000       7.025936       191.1854 
 505   0.0000       7.036969       191.4856 
 506   0.0000       7.041517       191.6094 
 507   0.0000       7.050725       191.8600 
 508   0.0000       7.059581       192.1010 
 509   0.0000       7.067216       192.3087 
 510   0.0000       7.093437       193.0222 
 511   0.0000       7.104751       193.3301 
 512   0.0000       7.111810       193.5222 
 513   0.0000       7.114829       193.6044 
 514   0.0000       7.130188       194.0223 
 515   0.0000       7.149862       194.5576 
 516   0.0000       7.165005       194.9697 
 517   0.0000       7.175263       195.2488 
 518   0.0000       7.194899       195.7832 
 519   0.0000       7.222969       196.5470 
 520   0.0000       7.269512       197.8135 
 521   0.0000       7.345422       199.8791 
 522   0.0000       7.380481       200.8331 
 523   0.0000       7.463316       203.0871 
 524   0.0000       7.484680       203.6685 
 525   0.0000       7.534740       205.0307 
 526   0.0000       7.577557       206.1958 
 527   0.0000       7.618097       207.2990 
 528   0.0000       7.625745       207.5071 
 529   0.0000       7.632774       207.6983 
 530   0.0000       7.642415       207.9607 
 531   0.0000       7.659778       208.4332 
 532   0.0000       7.665388       208.5858 
 533   0.0000       7.684433       209.1041 
 534   0.0000       7.709705       209.7917 
 535   0.0000       7.732989       210.4253 
 536   0.0000       7.750045       210.8894 
 537   0.0000       7.781370       211.7418 
 538   0.0000       7.797260       212.1742 
 539   0.0000       7.857419       213.8112 
 540   0.0000       8.535188       232.2543 
 541   0.0000       8.569386       233.1848 
 542   0.0000       8.570948       233.2273 
 543   0.0000       8.603580       234.1153 
 544   0.0000       8.638068       235.0538 
 545   0.0000       8.665347       235.7961 
 546   0.0000      15.663390       426.2225 
 547   0.0000      16.105767       438.2602 
 548   0.0000      16.383336       445.8133 
 549   0.0000      16.856212       458.6808 
 550   0.0000      17.063746       464.3281 
 551   0.0000      17.473066       475.4663 

                    ********************************
                    * MULLIKEN POPULATION ANALYSIS *
                    ********************************

-----------------------
MULLIKEN ATOMIC CHARGES
-----------------------
   0 O :   -0.541456
   1 H :    0.333530
   2 H :    0.117890
   3 O :   -0.547993
   4 H :    0.323911
   5 H :    0.267499
   6 O :   -0.428440
   7 H :    0.320056
   8 H :    0.127485
   9 O :   -0.410209
  10 H :    0.301641
  11 H :    0.117375
  12 O :   -0.374210
  13 H :    0.284731
  14 H :    0.103618
  15 O :   -0.388434
  16 H :    0.292677
  17 H :    0.100329
Sum of atomic charges:    0.0000000

--------------------------------
MULLIKEN REDUCED ORBITAL CHARGES
--------------------------------
  0 O s       :     4.082123  s :     4.082123
      pz      :     1.372080  p :     4.454901
      px      :     1.484831
      py      :     1.597990
      dz2     :     0.000119  d :     0.004623
      dxz     :     0.002130
      dyz     :    -0.002856
      dx2y2   :     0.003984
      dxy     :     0.001245
      f0      :    -0.000063  f :    -0.000191
      f+1     :     0.000015
      f-1     :    -0.000054
      f+2     :    -0.000221
      f-2     :     0.000090
      f+3     :     0.000011
      f-3     :     0.000032
  1 H s       :     0.580661  s :     0.580661
      pz      :     0.022954  p :     0.037690
      px      :    -0.033423
      py      :     0.048159
      dz2     :     0.014542  d :     0.048120
      dxz     :     0.004749
      dyz     :     0.009962
      dx2y2   :     0.001255
      dxy     :     0.017611
  2 H s       :     0.755376  s :     0.755376
      pz      :     0.025981  p :     0.108936
      px      :     0.038961
      py      :     0.043995
      dz2     :     0.007028  d :     0.017798
      dxz     :     0.006027
      dyz     :     0.000716
      dx2y2   :     0.001979
      dxy     :     0.002049
  3 O s       :     4.070195  s :     4.070195
      pz      :     1.681525  p :     4.465858
      px      :     1.454318
      py      :     1.330015
      dz2     :     0.001346  d :     0.012004
      dxz     :     0.000040
      dyz     :     0.000618
      dx2y2   :     0.008693
      dxy     :     0.001308
      f0      :     0.000105  f :    -0.000065
      f+1     :     0.000022
      f-1     :     0.000085
      f+2     :    -0.000110
      f-2     :    -0.000003
      f+3     :     0.000067
      f-3     :    -0.000231
  4 H s       :     0.569026  s :     0.569026
      pz      :     0.055965  p :     0.079560
      px      :     0.050680
      py      :    -0.027085
      dz2     :     0.001075  d :     0.027503
      dxz     :     0.001364
      dyz     :     0.015135
      dx2y2   :    -0.005081
      dxy     :     0.015010
  5 H s       :     0.600007  s :     0.600007
      pz      :     0.038105  p :     0.094053
      px      :     0.018653
      py      :     0.037296
      dz2     :     0.014106  d :     0.038441
      dxz     :     0.004257
      dyz     :     0.002903
      dx2y2   :     0.009362
      dxy     :     0.007812
  6 O s       :     3.987373  s :     3.987373
      pz      :     1.341401  p :     4.434120
      px      :     1.453635
      py      :     1.639084
      dz2     :    -0.000617  d :     0.006964
      dxz     :     0.002312
      dyz     :     0.000636
      dx2y2   :     0.003259
      dxy     :     0.001373
      f0      :    -0.000061  f :    -0.000017
      f+1     :     0.000005
      f-1     :     0.000084
      f+2     :     0.000051
      f-2     :    -0.000005
      f+3     :    -0.000086
      f-3     :    -0.000004
  7 H s       :     0.594104  s :     0.594104
      pz      :     0.031761  p :     0.049331
      px      :    -0.044821
      py      :     0.062391
      dz2     :     0.010409  d :     0.036508
      dxz     :     0.003753
      dyz     :     0.004922
      dx2y2   :     0.006403
      dxy     :     0.011022
  8 H s       :     0.747591  s :     0.747591
      pz      :     0.019976  p :     0.107364
      px      :     0.040580
      py      :     0.046808
      dz2     :     0.005514  d :     0.017560
      dxz     :     0.005724
      dyz     :     0.002250
      dx2y2   :     0.002408
      dxy     :     0.001663
  9 O s       :     3.969976  s :     3.969976
      pz      :     1.696707  p :     4.429836
      px      :     1.419470
      py      :     1.313659
      dz2     :     0.003183  d :     0.010384
      dxz     :    -0.001726
      dyz     :     0.000512
      dx2y2   :     0.007533
      dxy     :     0.000883
      f0      :     0.000078  f :     0.000013
      f+1     :     0.000048
      f-1     :     0.000088
      f+2     :     0.000023
      f-2     :    -0.000026
      f+3     :     0.000055
      f-3     :    -0.000253
 10 H s       :     0.602161  s :     0.602161
      pz      :     0.054640  p :     0.054633
      px      :     0.041493
      py      :    -0.041499
      dz2     :     0.000150  d :     0.041564
      dxz     :     0.000465
      dyz     :     0.022169
      dx2y2   :    -0.000767
      dxy     :     0.019548
 11 H s       :     0.749487  s :     0.749487
      pz      :     0.046923  p :     0.114817
      px      :     0.029806
      py      :     0.038088
      dz2     :     0.006420  d :     0.018321
      dxz     :     0.002624
      dyz     :     0.001410
      dx2y2   :     0.005034
      dxy     :     0.002833
 12 O s       :     3.953714  s :     3.953714
      pz      :     1.293004  p :     4.411878
      px      :     1.783614
      py      :     1.335260
      dz2     :     0.001114  d :     0.008737
      dxz     :     0.000185
      dyz     :     0.000716
      dx2y2   :     0.005736
      dxy     :     0.000986
      f0      :     0.000095  f :    -0.000118
      f+1     :     0.000144
      f-1     :    -0.000328
      f+2     :    -0.000078
      f-2     :     0.000021
      f+3     :    -0.000006
      f-3     :     0.000035
 13 H s       :     0.610908  s :     0.610908
      pz      :     0.031968  p :     0.057614
      px      :     0.057011
      py      :    -0.031365
      dz2     :    -0.000084  d :     0.046747
      dxz     :     0.000355
      dyz     :     0.017147
      dx2y2   :     0.000430
      dxy     :     0.028898
 14 H s       :     0.759801  s :     0.759801
      pz      :     0.013777  p :     0.116870
      px      :     0.064136
      py      :     0.038958
      dz2     :     0.003185  d :     0.019711
      dxz     :     0.010340
      dyz     :     0.002841
      dx2y2   :     0.001830
      dxy     :     0.001516
 15 O s       :     3.956674  s :     3.956674
      pz      :     1.562750  p :     4.421529
      px      :     1.263229
      py      :     1.595550
      dz2     :     0.000089  d :     0.010321
      dxz     :     0.005744
      dyz     :     0.001167
      dx2y2   :     0.002316
      dxy     :     0.001004
      f0      :     0.000014  f :    -0.000090
      f+1     :     0.000009
      f-1     :    -0.000040
      f+2     :    -0.000098
      f-2     :     0.000148
      f+3     :     0.000037
      f-3     :    -0.000161
 16 H s       :     0.611202  s :     0.611202
      pz      :     0.015662  p :     0.045995
      px      :    -0.017093
      py      :     0.047427
      dz2     :     0.010352  d :     0.050125
      dxz     :     0.005991
      dyz     :     0.005266
      dx2y2   :     0.005919
      dxy     :     0.022597
 17 H s       :     0.764154  s :     0.764154
      pz      :     0.038772  p :     0.116813
      px      :     0.032250
      py      :     0.045791
      dz2     :     0.004700  d :     0.018703
      dxz     :     0.002588
      dyz     :     0.001710
      dx2y2   :     0.007659
      dxy     :     0.002046


                     *******************************
                     * LOEWDIN POPULATION ANALYSIS *
                     *******************************

----------------------
LOEWDIN ATOMIC CHARGES
----------------------
   0 O :    1.150853
   1 H :   -0.657366
   2 H :   -0.430680
   3 O :    1.142300
   4 H :   -0.581904
   5 H :   -0.627251
   6 O :    1.122614
   7 H :   -0.650938
   8 H :   -0.461985
   9 O :    1.112166
  10 H :   -0.659377
  11 H :   -0.467862
  12 O :    1.131028
  13 H :   -0.666904
  14 H :   -0.452351
  15 O :    1.124145
  16 H :   -0.669360
  17 H :   -0.457128

-------------------------------
LOEWDIN REDUCED ORBITAL CHARGES
-------------------------------
  0 O s       :     2.933650  s :     2.933650
      pz      :     1.215408  p :     3.777909
      px      :     1.266164
      py      :     1.296336
      dz2     :     0.012527  d :     0.117646
      dxz     :     0.035681
      dyz     :     0.026145
      dx2y2   :     0.038050
      dxy     :     0.005244
      f0      :     0.002151  f :     0.019942
      f+1     :     0.001171
      f-1     :     0.004507
      f+2     :     0.006520
      f-2     :     0.001300
      f+3     :     0.003091
      f-3     :     0.001201
  1 H s       :     0.534058  s :     0.534058
      pz      :     0.185644  p :     0.618127
      px      :     0.294983
      py      :     0.137500
      dz2     :     0.093992  d :     0.505181
      dxz     :     0.141948
      dyz     :     0.048034
      dx2y2   :     0.114990
      dxy     :     0.106217
  2 H s       :     0.578689  s :     0.578689
      pz      :     0.192791  p :     0.515467
      px      :     0.138502
      py      :     0.184174
      dz2     :     0.095281  d :     0.336523
      dxz     :     0.074084
      dyz     :     0.084878
      dx2y2   :     0.039481
      dxy     :     0.042798
  3 O s       :     2.943853  s :     2.943853
      pz      :     1.333357  p :     3.790924
      px      :     1.242350
      py      :     1.215217
      dz2     :     0.008495  d :     0.103624
      dxz     :     0.029852
      dyz     :     0.007539
      dx2y2   :     0.050594
      dxy     :     0.007144
      f0      :     0.002771  f :     0.019300
      f+1     :     0.000677
      f-1     :     0.001745
      f+2     :     0.005285
      f-2     :     0.000704
      f+3     :     0.002828
      f-3     :     0.005289
  4 H s       :     0.557923  s :     0.557923
      pz      :     0.155331  p :     0.579832
      px      :     0.132606
      py      :     0.291895
      dz2     :     0.051797  d :     0.444150
      dxz     :     0.009004
      dyz     :     0.126671
      dx2y2   :     0.128964
      dxy     :     0.127712
  5 H s       :     0.551208  s :     0.551208
      pz      :     0.195874  p :     0.601394
      px      :     0.276348
      py      :     0.129172
      dz2     :     0.075258  d :     0.474649
      dxz     :     0.145449
      dyz     :     0.037489
      dx2y2   :     0.113988
      dxy     :     0.102465
  6 O s       :     2.956783  s :     2.956783
      pz      :     1.218893  p :     3.803962
      px      :     1.281071
      py      :     1.303999
      dz2     :     0.018116  d :     0.098158
      dxz     :     0.016939
      dyz     :     0.025296
      dx2y2   :     0.031937
      dxy     :     0.005871
      f0      :     0.001852  f :     0.018483
      f+1     :     0.000212
      f-1     :     0.006628
      f+2     :     0.003786
      f-2     :     0.000948
      f+3     :     0.002446
      f-3     :     0.002611
  7 H s       :     0.552835  s :     0.552835
      pz      :     0.169421  p :     0.609958
      px      :     0.293590
      py      :     0.146947
      dz2     :     0.080943  d :     0.488144
      dxz     :     0.141705
      dyz     :     0.033813
      dx2y2   :     0.121322
      dxy     :     0.110362
  8 H s       :     0.584130  s :     0.584130
      pz      :     0.213735  p :     0.534512
      px      :     0.142265
      py      :     0.178513
      dz2     :     0.103095  d :     0.343344
      dxz     :     0.088892
      dyz     :     0.089002
      dx2y2   :     0.032013
      dxy     :     0.030342
  9 O s       :     2.962965  s :     2.962965
      pz      :     1.350006  p :     3.810731
      px      :     1.242931
      py      :     1.217794
      dz2     :     0.010094  d :     0.096040
      dxz     :     0.024149
      dyz     :     0.004498
      dx2y2   :     0.045679
      dxy     :     0.011621
      f0      :     0.001996  f :     0.018098
      f+1     :     0.000588
      f-1     :     0.002355
      f+2     :     0.003752
      f-2     :     0.001507
      f+3     :     0.002292
      f-3     :     0.005609
 10 H s       :     0.551136  s :     0.551136
      pz      :     0.151370  p :     0.616815
      px      :     0.135555
      py      :     0.329890
      dz2     :     0.051626  d :     0.491427
      dxz     :     0.003341
      dyz     :     0.143941
      dx2y2   :     0.144375
      dxy     :     0.148144
 11 H s       :     0.585364  s :     0.585364
      pz      :     0.188631  p :     0.538046
      px      :     0.213148
      py      :     0.136268
      dz2     :     0.061065  d :     0.344451
      dxz     :     0.090833
      dyz     :     0.032629
      dx2y2   :     0.083545
      dxy     :     0.076380
 12 O s       :     2.947059  s :     2.947059
      pz      :     1.221605  p :     3.796011
      px      :     1.356886
      py      :     1.217519
      dz2     :     0.035487  d :     0.106263
      dxz     :     0.016319
      dyz     :     0.014200
      dx2y2   :     0.034522
      dxy     :     0.005735
      f0      :     0.005391  f :     0.019639
      f+1     :     0.001037
      f-1     :     0.005045
      f+2     :     0.001735
      f-2     :     0.000733
      f+3     :     0.001174
      f-3     :     0.004526
 13 H s       :     0.536705  s :     0.536705
      pz      :     0.129963  p :     0.624214
      px      :     0.145608
      py      :     0.348642
      dz2     :     0.047279  d :     0.505986
      dxz     :     0.001591
      dyz     :     0.159814
      dx2y2   :     0.152030
      dxy     :     0.145272
 14 H s       :     0.582060  s :     0.582060
      pz      :     0.234816  p :     0.529498
      px      :     0.159688
      py      :     0.134995
      dz2     :     0.116911  d :     0.340793
      dxz     :     0.097679
      dyz     :     0.097555
      dx2y2   :     0.017904
      dxy     :     0.010744
 15 O s       :     2.950309  s :     2.950309
      pz      :     1.335906  p :     3.800129
      px      :     1.176741
      py      :     1.287481
      dz2     :     0.009861  d :     0.105954
      dxz     :     0.029986
      dyz     :     0.009922
      dx2y2   :     0.034277
      dxy     :     0.021909
      f0      :     0.002251  f :     0.019462
      f+1     :     0.000432
      f-1     :     0.001364
      f+2     :     0.004068
      f-2     :     0.005092
      f+3     :     0.003034
      f-3     :     0.003222
 16 H s       :     0.536494  s :     0.536494
      pz      :     0.199971  p :     0.626457
      px      :     0.289221
      py      :     0.137264
      dz2     :     0.084516  d :     0.506409
      dxz     :     0.160753
      dyz     :     0.030627
      dx2y2   :     0.111159
      dxy     :     0.119355
 17 H s       :     0.583953  s :     0.583953
      pz      :     0.188692  p :     0.531986
      px      :     0.163380
      py      :     0.179914
      dz2     :     0.066781  d :     0.341189
      dxz     :     0.061118
      dyz     :     0.058538
      dx2y2   :     0.089809
      dxy     :     0.064944


[...]
      1       0.001480   0.000572   0.000212  -0.000943  -0.000305  -0.000575
      2       0.017869   0.020871   0.010811  -0.002030  -0.002761  -0.001781
      3       0.502460   0.605660   0.326378  -0.064978  -0.068228  -0.041391
      4      -0.022366  -0.031497  -0.017869   0.007602   0.005029   0.005250
      5      -0.287514  -0.352378  -0.193300   0.044020   0.049179   0.032407
      6      -0.004584  -0.004953  -0.001926   0.005148   0.008244   0.006420
      7       0.020377   0.027108   0.019088  -0.001400   0.000602  -0.000413
      8       0.030027   0.039020   0.025298  -0.001649   0.001696   0.001002
      9       0.002940  -0.005438   0.003326   0.022198  -0.037562   0.025863
     10      -0.003134  -0.000860  -0.001075   0.008361  -0.001875   0.005980
     11       0.003081  -0.004319   0.001878   0.014375  -0.021437   0.015735
     12      -0.003594   0.004116  -0.001432   0.014412  -0.019759   0.015241
     13       0.063380  -0.012334   0.028276  -0.039022  -0.118086   0.009206
     14       0.020930  -0.004480   0.008395  -0.004528  -0.039815   0.008718
     15      -0.066297   0.090929  -0.052352  -0.351092   0.609750  -0.419974
     16      -0.018746   0.018833  -0.012292  -0.089225   0.151713  -0.101326
     17      -0.038597   0.051422  -0.029894  -0.218259   0.374010  -0.255358
     18      -0.004560  -0.005404  -0.002446  -0.023434  -0.035330  -0.032876
     19      -0.000595  -0.001254  -0.000463  -0.005361  -0.009163  -0.008125
     20      -0.002089  -0.002447  -0.001072  -0.009049  -0.014426  -0.013975
     21       0.067146   0.081754   0.037618   0.367355   0.564645   0.528351
     22       0.012806   0.018560   0.007221   0.082991   0.114331   0.105024
     23       0.031401   0.036791   0.017090   0.184920   0.292350   0.275362
     24      -0.001786  -0.001244  -0.000173  -0.005635  -0.014292  -0.016049
     25       0.001645   0.000819   0.001299   0.027449   0.030329   0.020216
     26      -0.004198  -0.003485  -0.002190  -0.048054  -0.068318  -0.058147
     27      -0.000026   0.000307   0.000153   0.006424  -0.000151  -0.005541
     28      -0.003219   0.000207  -0.001708  -0.047683  -0.003079   0.035933
     29      -0.000252   0.000631  -0.000145   0.001537   0.000601  -0.001529
     30      -0.005362  -0.000809  -0.002373  -0.060549   0.000677   0.035126
     31       0.048212  -0.003715   0.026978   0.778634   0.044330  -0.600405
     32      -0.003559  -0.001985  -0.001910  -0.067932  -0.001974   0.053340
     33      -0.004196   0.003591  -0.003260  -0.063214   0.011604   0.046608
     34      -0.002275   0.000109  -0.001328  -0.042159  -0.000807   0.036554
     35       0.002417  -0.002301   0.001783   0.035573  -0.002219  -0.031065
     36       0.000486   0.000570   0.001456   0.000174   0.000272   0.000117
     37       0.037202  -0.002698  -0.049603  -0.000464  -0.000195  -0.000040
     38       0.003687   0.000104  -0.005501  -0.000147  -0.000188  -0.000060
     39       0.021184   0.002377  -0.017919   0.000082  -0.001734   0.000188
     40      -0.574967   0.041718   0.808206   0.006664   0.002476  -0.000252
     41      -0.047175  -0.000798   0.044382   0.000524   0.001643   0.000150
     42       0.012727   0.008744  -0.003754  -0.001027  -0.000022   0.000256
     43       0.020120  -0.003980  -0.037591   0.000081   0.000467   0.000188
     44      -0.035823  -0.011712   0.039609   0.000862  -0.000529  -0.000731
     45       0.028670  -0.035524   0.022015  -0.004364   0.005182  -0.002055
     46       0.002243  -0.004799   0.002882  -0.000740   0.000846  -0.000369
     47      -0.020468   0.024280  -0.014343   0.003255  -0.004173   0.001685
     48      -0.462851   0.585040  -0.365839   0.077957  -0.097055   0.039199
     49      -0.057880   0.060020  -0.030235   0.006258  -0.003808   0.001766
     50       0.292442  -0.363205   0.223679  -0.048567   0.061467  -0.024565
     51       0.030595  -0.038859   0.023967  -0.007460   0.011799  -0.005175
     52      -0.029591   0.024539  -0.002047   0.005407  -0.007984   0.003510
     53       0.010642  -0.007803  -0.000064  -0.002947   0.005222  -0.002295
                 48         49         50         51         52         53    
      0      -0.002265   0.002134   0.001896  -0.000556  -0.001062   0.001474
      1       0.000661   0.021657   0.024273  -0.002976  -0.018599   0.011902
      2       0.003187   0.026059   0.029522  -0.003488  -0.022705   0.014421
      3       0.047028   0.022840   0.032323   0.001025  -0.029284   0.008421
      4      -0.004355   0.010127   0.010987  -0.001972  -0.007574   0.006089
      5      -0.030232   0.002374  -0.004162  -0.004022   0.007560   0.002899
      6      -0.005046  -0.057873  -0.065062   0.007570   0.049612  -0.030915
      7      -0.016733  -0.353820  -0.396319   0.049554   0.302269  -0.195219
      8      -0.015927  -0.414373  -0.463995   0.058073   0.353531  -0.228323
      9       0.005015  -0.000272   0.000445   0.000283   0.000684  -0.000085
     10       0.060293  -0.000420  -0.001091   0.000732   0.000538  -0.001083
     11       0.015677  -0.000185  -0.000118   0.000403   0.000342  -0.000241
     12      -0.003423   0.000180   0.000825  -0.000311  -0.000435   0.000458
     13      -0.963376   0.006380   0.018811  -0.011560  -0.007378   0.017724
     14      -0.215321   0.001708   0.004493  -0.002726  -0.001760   0.003432
     15      -0.066076   0.003372  -0.005663  -0.005776  -0.009190   0.000950
     16       0.014270   0.000878  -0.001997  -0.000050  -0.001470   0.000053
     17      -0.034990   0.002391  -0.003283  -0.001450  -0.004530   0.000892
     18       0.004375   0.000650   0.001339   0.002136  -0.000060  -0.005654
     19       0.001683  -0.004047  -0.006844  -0.006853   0.003349   0.024093
     20       0.001072   0.008429   0.014472   0.015406  -0.006415  -0.051560
     21      -0.074026  -0.009908  -0.019792  -0.032311  -0.000056   0.083071
     22      -0.014695  -0.003142  -0.006544  -0.010190   0.001608   0.030672
     23      -0.040195  -0.000565  -0.002573  -0.008874  -0.003800   0.014628
     24       0.001687  -0.000283  -0.000561  -0.000285   0.000658   0.003250
     25      -0.010512   0.068344   0.116659   0.121757  -0.053514  -0.412032
     26       0.020720  -0.132981  -0.226854  -0.235978   0.105050   0.802653
     27      -0.000490  -0.003590  -0.012626  -0.039254  -0.022576  -0.012822
     28       0.002308  -0.001857  -0.006680  -0.020789  -0.012177  -0.007431
     29      -0.000519   0.002123   0.007624   0.023518   0.013601   0.007723
     30       0.003028  -0.002577  -0.009241  -0.027565  -0.015890  -0.008135
     31      -0.039410   0.005332   0.020315   0.063940   0.040133   0.031760
     32       0.003974   0.000923   0.002732   0.007870   0.003768   0.000032
     33      -0.001219   0.058951   0.209597   0.649088   0.374128   0.211773
     34       0.000894   0.023882   0.085018   0.263114   0.151552   0.085323
     35       0.000286  -0.034732  -0.123467  -0.382009  -0.220176  -0.124360
     36      -0.000277  -0.004959   0.000770   0.002842  -0.005079   0.000979
     37       0.000934  -0.017216   0.001492   0.010020  -0.017097   0.002699
     38       0.000259   0.036382  -0.004899  -0.020442   0.035890  -0.006094
     39      -0.000188  -0.002026  -0.000295   0.001900  -0.003145   0.000375
     40      -0.015470   0.026883   0.009114  -0.020524   0.028774  -0.002060
     41      -0.000926   0.022754  -0.004401  -0.011531   0.020804  -0.003403
     42       0.000477   0.081691  -0.010623  -0.046058   0.080374  -0.013527
     43       0.000341   0.243613  -0.033178  -0.136598   0.239853  -0.040502
     44      -0.000951  -0.600934   0.079346   0.337229  -0.590311   0.099118
     45       0.001752   0.022182  -0.031119   0.016881  -0.016290   0.002000
     46       0.000724  -0.017543   0.024895  -0.013687   0.013478  -0.001671
     47      -0.001710   0.011225  -0.016026   0.008795  -0.008691   0.001021
     48      -0.040722  -0.015630   0.017708  -0.008110   0.004699  -0.001205
     49      -0.000230  -0.010890   0.015783  -0.008561   0.008316  -0.000737
     50       0.023711   0.023284  -0.030431   0.015848  -0.013525   0.002117
     51       0.009760  -0.334981   0.474492  -0.258749   0.252978  -0.030600
     52      -0.007857   0.290733  -0.410762   0.223643  -0.218350   0.026442
     53       0.004705  -0.203601   0.287322  -0.156403   0.152566  -0.018437


-----------
IR SPECTRUM  
-----------

 Mode    freq (cm**-1)   T**2         TX         TY         TZ
-------------------------------------------------------------------
   6:        26.72    0.761549  (  0.856422   0.089314  -0.141822)
   7:        43.69    0.555430  ( -0.235746  -0.145735   0.691820)
   8:        58.43    2.273523  (  0.837092  -0.032458   1.253693)
   9:        76.64    1.191250  (  0.868027  -0.531584  -0.393953)
  10:        99.10    6.550441  (  0.332207   1.227446   2.221138)
  11:       144.76    0.312590  (  0.305967  -0.463953   0.061006)
  12:       195.77    6.294359  ( -0.852937  -2.249694  -0.711150)
  13:       216.92   47.905979  (  6.144957   3.185191  -0.006405)
  14:       227.13   59.220586  (  3.306790  -5.972683  -3.551449)
  15:       251.37   60.945824  (  2.703851  -7.314877  -0.357183)
  16:       272.95   76.950149  ( -2.025729  -8.139385  -2.568459)
  17:       278.87   10.317440  ( -0.778150  -3.080347  -0.472636)
  18:       286.60  129.498336  ( -9.615919  -4.227377  -4.377410)
  19:       301.64  102.996748  (  8.618017  -4.738716   2.504216)
  20:       319.54   12.736199  (  0.668082  -2.027167  -2.860150)
  21:       327.56   49.202102  ( -3.137439   6.220307   0.816305)
  22:       342.76   80.180069  ( -5.293666  -0.695353   7.188439)
  23:       422.24   29.008920  (  4.165958   2.299519   2.523078)
  24:       444.84   49.900349  ( -1.438808   4.720416  -5.054489)
  25:       480.93   53.734242  ( -4.977125  -3.206253   4.322316)
  26:       497.52    8.845446  (  0.973631  -2.755461   0.552197)
  27:       525.94   29.401428  (  4.269933  -2.158856  -2.551165)
  28:       580.23    6.270160  (  1.532668   1.871648  -0.646548)
  29:       648.76   70.771680  (  0.981999   4.045496  -7.310357)
  30:       780.34  160.819809  ( -3.152242  10.327429   6.650367)
  31:       823.80  148.896407  ( -2.814290  -6.659344   9.830021)
  32:       903.89  213.646882  ( 13.185954   1.540497   6.115912)
  33:       926.52   25.937752  ( -2.988661  -1.053671  -3.986908)
  34:       974.32   93.787216  (  2.293582  -8.790777  -3.353942)
  35:      1093.57   19.447208  (  2.677705   0.884504  -3.390392)
  36:      1649.57   66.187823  (  6.936726   3.921210   1.641271)
  37:      1662.86   82.114685  (  4.061771  -0.959445  -8.043393)
  38:      1668.47   81.490285  ( -3.253864   7.842461  -3.065692)
  39:      1685.45    6.032383  ( -2.222255  -1.019191   0.234978)
  40:      1700.49   39.730688  ( -5.126840   3.541508  -0.950746)
  41:      1727.58   19.591939  ( -3.484231   2.163947  -1.664154)
  42:      3042.41  358.482837  (  0.122899 -18.925797  -0.530967)
  43:      3152.59  2643.982615  ( 47.181515  -3.231003 -20.185339)
  44:      3211.93  714.891388  ( -0.676450  26.711230  -0.971592)
  45:      3344.18  417.064877  (  1.664123  20.295583  -1.544310)
  46:      3427.72  1142.461126  ( 27.568727   3.514474  19.237331)
  47:      3438.13  257.068153  (  0.945178 -15.591734   3.615607)
  48:      3631.34  383.178279  ( -5.357083 -18.474006  -3.631948)
  49:      3827.89   74.877850  ( -1.490278   3.452970  -7.793197)
  50:      3829.41   67.703192  (  5.448357  -3.183100  -5.280765)
  51:      3830.22   25.191294  ( -0.550012   4.647670  -1.813269)
  52:      3830.88   55.715400  (  4.314970   6.065913  -0.548760)
  53:      3834.12   43.088964  (  4.801687  -1.865303   4.068589)

The first frequency considered to be a vibration is 6
The total number of vibrations considered is 48


--------------------------
THERMOCHEMISTRY AT 298.15K
--------------------------

Temperature         ... 298.15 K
Pressure            ... 1.00 atm
Total Mass          ... 108.09 AMU

Throughout the following assumptions are being made:
  (1) The electronic state is orbitally nondegenerate
  (2) There are no thermally accessible electronically excited states
  (3) Hindered rotations indicated by low frequency modes are not
      treated as such but are treated as vibrations and this may
      cause some error
  (4) All equations used are the standard statistical mechanics
      equations for an ideal gas
  (5) All vibrations are strictly harmonic

freq.      26.72  E(vib)   ...       0.56 
freq.      43.69  E(vib)   ...       0.53 
freq.      58.43  E(vib)   ...       0.51 
freq.      76.64  E(vib)   ...       0.49 
freq.      99.10  E(vib)   ...       0.46 
freq.     144.76  E(vib)   ...       0.41 
freq.     195.77  E(vib)   ...       0.36 
freq.     216.92  E(vib)   ...       0.34 
freq.     227.13  E(vib)   ...       0.33 
freq.     251.37  E(vib)   ...       0.30 
freq.     272.95  E(vib)   ...       0.29 
freq.     278.87  E(vib)   ...       0.28 
freq.     286.60  E(vib)   ...       0.27 
freq.     301.64  E(vib)   ...       0.26 
freq.     319.54  E(vib)   ...       0.25 
freq.     327.56  E(vib)   ...       0.24 
freq.     342.76  E(vib)   ...       0.23 
freq.     422.24  E(vib)   ...       0.18 
freq.     444.84  E(vib)   ...       0.17 
freq.     480.93  E(vib)   ...       0.15 
freq.     497.52  E(vib)   ...       0.14 
freq.     525.94  E(vib)   ...       0.13 
freq.     580.23  E(vib)   ...       0.11 
freq.     648.76  E(vib)   ...       0.08 
freq.     780.34  E(vib)   ...       0.05 
freq.     823.80  E(vib)   ...       0.05 
freq.     903.89  E(vib)   ...       0.03 
freq.     926.52  E(vib)   ...       0.03 
freq.     974.32  E(vib)   ...       0.03 
freq.    1093.57  E(vib)   ...       0.02 
freq.    1649.57  E(vib)   ...       0.00 
freq.    1662.86  E(vib)   ...       0.00 
freq.    1668.47  E(vib)   ...       0.00 
freq.    1685.45  E(vib)   ...       0.00 
freq.    1700.49  E(vib)   ...       0.00 
freq.    1727.58  E(vib)   ...       0.00 
freq.    3042.41  E(vib)   ...       0.00 
freq.    3152.59  E(vib)   ...       0.00 
freq.    3211.93  E(vib)   ...       0.00 
freq.    3344.18  E(vib)   ...       0.00 
freq.    3427.72  E(vib)   ...       0.00 
freq.    3438.13  E(vib)   ...       0.00 
freq.    3631.34  E(vib)   ...       0.00 
freq.    3827.89  E(vib)   ...       0.00 
freq.    3829.41  E(vib)   ...       0.00 
freq.    3830.22  E(vib)   ...       0.00 
freq.    3830.88  E(vib)   ...       0.00 
freq.    3834.12  E(vib)   ...       0.00 

------------
INNER ENERGY
------------

The inner energy is: U= E(el) + E(ZPE) + E(vib) + E(rot) + E(trans)
    E(el)   - is the total energy from the electronic structure calculation
              = E(kin-el) + E(nuc-el) + E(el-el) + E(nuc-nuc)
    E(ZPE)  - the the zero temperature vibrational energy from the frequency calculation
    E(vib)  - the the finite temperature correction to E(ZPE) due to population
              of excited vibrational states
    E(rot)  - is the rotational thermal energy
    E(trans)- is the translational thermal energy

Summary of contributions to the inner energy U:
Electronic energy                ...   -458.82824236 Eh
Zero point energy                ...      0.14823714 Eh      93.02 kcal/mol
Thermal vibrational correction   ...      0.01160701 Eh       7.28 kcal/mol
Thermal rotational correction    ...      0.00141627 Eh       0.89 kcal/mol
Thermal translational correction ...      0.00141627 Eh       0.89 kcal/mol
-----------------------------------------------------------------------
Total thermal energy                   -458.66556567 Eh


Summary of corrections to the electronic energy:
(perhaps to be used in another calculation)
Total thermal correction                  0.01443955 Eh       9.06 kcal/mol
Non-thermal (ZPE) correction              0.14823714 Eh      93.02 kcal/mol
-----------------------------------------------------------------------
Total correction                          0.16267669 Eh     102.08 kcal/mol


--------
ENTHALPY
--------

The enthalpy is H = U + kB*T
                kB is Boltzmann's constant
Total free energy                 ...   -458.66556567 Eh 
Thermal Enthalpy correction       ...      0.00094421 Eh       0.59 kcal/mol
-----------------------------------------------------------------------
Total Enthalpy                    ...   -458.66462146 Eh


Note: Only C1 symmetry has been detected, increase convergence thresholds 
      if your molecule has a higher symmetry. Symmetry factor of 1.0 is   
      used for the rotational entropy correction. 
 

Note: Rotational entropy computed according to Herzberg 
Infrared and Raman Spectra, Chapter V,1, Van Nostrand Reinhold, 1945 
Point Group:  C1, Symmetry Number:   1  
Rotational constants in cm-1:     0.064921     0.038409     0.028058 

Vibrational entropy computed according to the QRRHO of S. Grimme
Chem.Eur.J. 2012 18 9955


-------
ENTROPY
-------

The entropy contributions are T*S = T*(S(el)+S(vib)+S(rot)+S(trans))
     S(el)   - electronic entropy
     S(vib)  - vibrational entropy
     S(rot)  - rotational entropy
     S(trans)- translational entropy
The entropies will be listed as mutliplied by the temperature to get
units of energy

Electronic entropy                ...      0.00000000 Eh      0.00 kcal/mol
Vibrational entropy               ...      0.02073410 Eh     13.01 kcal/mol
Rotational entropy                ...      0.01402755 Eh      8.80 kcal/mol
Translational entropy             ...      0.01898142 Eh     11.91 kcal/mol
-----------------------------------------------------------------------
Final entropy term                ...      0.05374307 Eh     33.72 kcal/mol

In case the symmetry of your molecule has not been determined correctly
or in case you have a reason to use a different symmetry number we print 
out the resulting rotational entropy values for sn=1,12 :
 --------------------------------------------------------
|  sn= 1 | S(rot)=       0.01402755 Eh      8.80 kcal/mol|
|  sn= 2 | S(rot)=       0.01337309 Eh      8.39 kcal/mol|
|  sn= 3 | S(rot)=       0.01299026 Eh      8.15 kcal/mol|
|  sn= 4 | S(rot)=       0.01271864 Eh      7.98 kcal/mol|
|  sn= 5 | S(rot)=       0.01250795 Eh      7.85 kcal/mol|
|  sn= 6 | S(rot)=       0.01233580 Eh      7.74 kcal/mol|
|  sn= 7 | S(rot)=       0.01219026 Eh      7.65 kcal/mol|
|  sn= 8 | S(rot)=       0.01206418 Eh      7.57 kcal/mol|
|  sn= 9 | S(rot)=       0.01195297 Eh      7.50 kcal/mol|
|  sn=10 | S(rot)=       0.01185349 Eh      7.44 kcal/mol|
|  sn=11 | S(rot)=       0.01176350 Eh      7.38 kcal/mol|
|  sn=12 | S(rot)=       0.01168135 Eh      7.33 kcal/mol|
 --------------------------------------------------------


-------------------
GIBBS FREE ENERGY
-------------------

The Gibbs free energy is G = H - T*S

Total enthalpy                    ...   -458.66462146 Eh 
Total entropy correction          ...     -0.05374307 Eh    -33.72 kcal/mol
-----------------------------------------------------------------------
Final Gibbs free energy         ...   -458.71836453 Eh

For completeness - the Gibbs free energy minus the electronic energy
G-E(el)                           ...      0.10987784 Eh     68.95 kcal/mol


Total Time for Numerical Frequencies  :      8354.682 sec

Timings for individual modules:

Sum of individual times         ...     1763.088 sec (=  29.385 min)
GTO integral calculation        ...       23.182 sec (=   0.386 min)   1.3 %
SCF iterations                  ...     1039.392 sec (=  17.323 min)  59.0 %
SCF Gradient evaluation         ...      696.983 sec (=  11.616 min)  39.5 %
Geometry relaxation             ...        3.532 sec (=   0.059 min)   0.2 %
                             ****ORCA TERMINATED NORMALLY****
TOTAL RUN TIME: 0 days 2 hours 47 minutes 51 seconds 138 msec
