
                                 *****************
                                 * O   R   C   A *
                                 *****************

           --- An Ab Initio, DFT and Semiempirical electronic structure package ---

                  #######################################################
                  #                        -***-                        #
                  #          Department of theory and spectroscopy      #
                  #               Directorship: Frank Neese             #
                  #        Max Planck Institute fuer Kohlenforschung    #
                  #                Kaiser Wilhelm Platz 1               #
                  #                 D-45470 Muelheim/Ruhr               #
                  #                      Germany                        #
                  #                                                     #
                  #                  All rights reserved                #
                  #                        -***-                        #
                  #######################################################


                         Program Version 4.2.0 -  RELEASE  -


 With contributions from (in alphabetic order):
   Daniel Aravena         : Magnetic Suceptibility
   Michael Atanasov       : Ab Initio Ligand Field Theory (pilot matlab implementation)
   Alexander A. Auer      : GIAO ZORA, VPT2
   Ute Becker             : Parallelization
   Giovanni Bistoni       : ED, misc. LED, open-shell LED, HFLED
   Martin Brehm           : Molecular dynamics
   Dmytro Bykov           : SCF Hessian
   Vijay G. Chilkuri      : MRCI spin determinant printing, contributions to CSF-ICE
   Dipayan Datta          : RHF DLPNO-CCSD density
   Achintya Kumar Dutta   : EOM-CC, STEOM-CC
   Dmitry Ganyushin       : Spin-Orbit,Spin-Spin,Magnetic field MRCI
   Miquel Garcia          : C-PCM Hessian, Gaussian charge scheme
   Yang Guo               : DLPNO-NEVPT2, CIM, IAO-localization
   Andreas Hansen         : Spin unrestricted coupled pair/coupled cluster methods
   Benjamin Helmich-Paris : CASSCF linear response (MC-RPA)
   Lee Huntington         : MR-EOM, pCC
   Robert Izsak           : Overlap fitted RIJCOSX, COSX-SCS-MP3, EOM
   Christian Kollmar      : KDIIS, OOCD, Brueckner-CCSD(T), CCSD density
   Simone Kossmann        : Meta GGA functionals, TD-DFT gradient, OOMP2, MP2 Hessian
   Martin Krupicka        : AUTO-CI
   Lucas Lang             : DCDCAS
   Dagmar Lenk            : GEPOL surface, SMD
   Dimitrios Liakos       : Extrapolation schemes; Compound Job, initial MDCI parallelization
   Dimitrios Manganas     : Further ROCIS development; embedding schemes
   Dimitrios Pantazis     : SARC Basis sets
   Taras Petrenko         : DFT Hessian,TD-DFT gradient, ASA, ECA, R-Raman, ABS, FL, XAS/XES, NRVS
   Peter Pinski           : DLPNO-MP2, DLPNO-MP2 Gradient
   Christoph Reimann      : Effective Core Potentials
   Marius Retegan         : Local ZFS, SOC
   Christoph Riplinger    : Optimizer, TS searches, QM/MM, DLPNO-CCSD(T), (RO)-DLPNO pert. Triples
   Tobias Risthaus        : Range-separated hybrids, TD-DFT gradient, RPA, STAB
   Michael Roemelt        : Original ROCIS implementation
   Masaaki Saitow         : Open-shell DLPNO-CCSD energy and density
   Barbara Sandhoefer     : DKH picture change effects
   Avijit Sen             : IP-ROCIS
   Kantharuban Sivalingam : CASSCF convergence, NEVPT2, FIC-MRCI
   Bernardo de Souza      : ESD, SOC TD-DFT
   Georgi Stoychev        : AutoAux, RI-MP2 NMR
   Willem Van den Heuvel  : Paramagnetic NMR
   Boris Wezisla          : Elementary symmetry handling
   Frank Wennmohs         : Technical directorship


 We gratefully acknowledge several colleagues who have allowed us to
 interface, adapt or use parts of their codes:
   Stefan Grimme, W. Hujo, H. Kruse,             : VdW corrections, initial TS optimization,
                  C. Bannwarth                     DFT functionals, gCP, sTDA/sTD-DF
   Ed Valeev, F. Pavosevic, A. Kumar             : LibInt (2-el integral package), F12 methods
   Garnet Chan, S. Sharma, J. Yang, R. Olivares  : DMRG
   Ulf Ekstrom                                   : XCFun DFT Library
   Mihaly Kallay                                 : mrcc  (arbitrary order and MRCC methods)
   Andreas Klamt, Michael Diedenhofen            : otool_cosmo (COSMO solvation model)
   Jiri Pittner, Ondrej Demel                    : Mk-CCSD
   Frank Weinhold                                : gennbo (NPA and NBO analysis)
   Christopher J. Cramer and Donald G. Truhlar   : smd solvation model
   Lars Goerigk                                  : TD-DFT with DH, B97 family of functionals
   V. Asgeirsson, H. Jonsson                     : NEB implementation
   FAccTs GmbH                                   : IRC, NEB, NEB-TS, Multilevel, MM, QM/MM, CI optimization
   S Lehtola, MJT Oliveira, MAL Marques          : LibXC Library


 Your calculation uses the libint2 library for the computation of 2-el integrals
 For citations please refer to: http://libint.valeyev.net

 Your ORCA version has been built with support for libXC version: 4.2.3
 For citations please refer to: https://tddft.org/programs/libxc/

 This ORCA versions uses:
   CBLAS   interface :  Fast vector & matrix operations
   LAPACKE interface :  Fast linear algebra routines
   SCALAPACK package :  Parallel linear algebra routines


Your calculation utilizes the atom-pairwise dispersion correction
with the Becke-Johnson damping scheme (D3BJ)
Cite in your paper:
S.Grimme, S.Ehrlich, L.Goerigk, J Comput Chem, (2011), 32, 1456–1465 
S.Grimme, J.Antony, S.Ehrlich and H.Krieg, J.Chem.Phys., 132, (2010), 154104 
   

----- Orbital basis set information -----
Your calculation utilizes the basis: aug-cc-pV(T+d)Z 
             Al - Ar: T.H. Dunning, Jr., K. A. Peterson and A. K. Wilson, J. Chem. Phys.
                      114, 9244 (2001)

----- AuxJK basis set information -----
Your calculation utilizes the auxiliary basis: def2/JK
   H-Ba, Hf-Rn: F. Weigend, J. Comput. Chem. 29, 167 (2008).

================================================================================
                                        WARNINGS
                       Please study these warnings very carefully!
================================================================================


WARNING: Geometry Optimization
  ===> : Switching off AutoStart
         For restart on a previous wavefunction, please use MOREAD

INFO   : the flag for use of LIBINT has been found!

================================================================================
                                       INPUT FILE
================================================================================
NAME = 08_H2O_6_cage.in
|  1> #
|  2> # 08_H2O_6_cage tpssh/aug-cc-pvt(+d)z
|  3> #
|  4> ! tpssh d3bj aug-cc-pvt(+d)z def2/jk grid4 nofinalgrid opt xyzfile numfreq
|  5> 
|  6> *xyz 0 1
|  7> O	0.862065	-1.728538	-0.448765
|  8> H	1.679686	-1.216793	-0.290371
|  9> H	1.141594	-2.607406	-0.70991
| 10> O	-0.751083	0.359939	-1.648316
| 11> H	-0.283702	-0.473988	-1.502279
| 12> H	-1.624922	0.21572	-1.247934
| 13> O	0.590537	1.75631	0.198185
| 14> H	0.069166	1.374794	-0.548651
| 15> H	0.493944	2.707937	0.134574
| 16> O	-0.675492	-0.446436	1.665684
| 17> H	-0.188802	-1.063799	1.102054
| 18> H	-0.260662	0.405216	1.474464
| 19> O	2.803582	0.112403	0.084677
| 20> H	2.165098	0.844551	0.158067
| 21> H	3.282044	0.106258	0.915526
| 22> O	-2.901034	0.010949	0.089937
| 23> H	-2.258917	-0.224605	0.785219
| 24> H	-3.643112	-0.584893	0.198028
| 25> *
| 26> 
| 27> %maxcore 5000
| 28> 
| 29> %pal
| 30> nprocs 24
| 31> end
| 32> 
| 33> 
| 34>                          ****END OF INPUT****
================================================================================

                       *****************************
                       * Geometry Optimization Run *
                       *****************************

Geometry optimization settings:
Update method            Update   .... BFGS
Choice of coordinates    CoordSys .... Z-matrix Internals
Initial Hessian          InHess   .... Almoef's Model

Convergence Tolerances:
Energy Change            TolE     ....  5.0000e-06 Eh
Max. Gradient            TolMAXG  ....  3.0000e-04 Eh/bohr
RMS Gradient             TolRMSG  ....  1.0000e-04 Eh/bohr
Max. Displacement        TolMAXD  ....  4.0000e-03 bohr
RMS Displacement         TolRMSD  ....  2.0000e-03 bohr
Strict Convergence                ....  False
------------------------------------------------------------------------------
                        ORCA OPTIMIZATION COORDINATE SETUP
------------------------------------------------------------------------------

The optimization will be done in new redundant internal coordinates
Making redundant internal coordinates   ...  (new redundants) done
Evaluating the initial hessian          ...  (Almloef) done
Evaluating the coordinates              ...  done
Calculating the B-matrix                .... done
Calculating the G-matrix                .... done
Diagonalizing the G-matrix              .... done
The first mode is                       ....  268
The number of degrees of freedom        ....   48

    -----------------------------------------------------------------
                    Redundant Internal Coordinates


    -----------------------------------------------------------------
         Definition                    Initial Value    Approx d2E/dq
    -----------------------------------------------------------------
      1. B(H   1,O   0)                  0.9775         0.487609   
      2. B(H   2,O   0)                  0.9585         0.522809   
      3. B(H   4,O   3)                  0.9671         0.506643   
      4. B(H   4,O   0)                  1.9991         0.011431   
      5. B(H   5,O   3)                  0.9720         0.497612   
      6. B(H   7,H   4)                  2.1100         0.001626   
      7. B(H   7,O   3)                  1.7065         0.033500   
      8. B(H   7,O   6)                  0.9875         0.470003   
      9. B(H   7,H   5)                  2.1685         0.001312   
     10. B(H   8,O   6)                  0.9586         0.522581   
     11. B(H  10,O   0)                  1.9878         0.011918   
     12. B(H  10,H   1)                  2.3353         0.000711   
     13. B(H  10,O   9)                  0.9673         0.506184   
     14. B(H  11,H   7)                  2.2676         0.000911   
     15. B(H  11,O   6)                  2.0442         0.009686   
     16. B(H  11,O   9)                  0.9664         0.507844   
     17. B(O  12,H   1)                  1.7806         0.025512   
     18. B(H  13,O   6)                  1.8199         0.022080   
     19. B(H  13,H   1)                  2.1647         0.001330   
     20. B(H  13,O  12)                  0.9742         0.493506   
     21. B(H  13,H   7)                  2.2745         0.000888   
     22. B(H  14,O  12)                  0.9588         0.522277   
     23. B(O  15,H   5)                  1.8602         0.019045   
     24. B(H  16,H  11)                  2.2056         0.001144   
     25. B(H  16,H  10)                  2.2561         0.000951   
     26. B(H  16,O   9)                  1.8253         0.021650   
     27. B(H  16,H   5)                  2.1748         0.001282   
     28. B(H  16,O  15)                  0.9753         0.491531   
     29. B(H  17,O  15)                  0.9578         0.524165   
     30. A(H   4,O   0,H  10)           84.1622         0.130751   
     31. A(H   2,O   0,H   4)          126.7959         0.187252   
     32. A(H   1,O   0,H  10)           98.0887         0.186633   
     33. A(H   1,O   0,H   4)          103.6653         0.185714   
     34. A(H   2,O   0,H  10)          132.3270         0.188186   
     35. A(H   1,O   0,H   2)          106.2749         0.318758   
     36. A(H  10,H   1,O  12)          109.3008         0.110399   
     37. A(O  12,H   1,H  13)           26.3603         0.113660   
     38. A(O   0,H   1,H  10)           57.4292         0.130727   
     39. A(O   0,H   1,H  13)          136.0277         0.137086   
     40. A(O   0,H   1,O  12)          162.3447         0.204986   
     41. A(H  10,H   1,H  13)           89.6282         0.097872   
     42. A(H   5,O   3,H   7)          104.7699         0.212930   
     43. A(H   4,O   3,H   5)          104.1436         0.318181   
     44. A(H   4,O   3,H   7)          100.5572         0.213436   
     45. A(O   3,H   4,H   7)           52.6623         0.139762   
     46. A(O   0,H   4,O   3)          153.8607         0.186556   
     47. A(O   0,H   4,H   7)          102.4647         0.110520   
     48. A(O  15,H   5,H  16)           26.5348         0.111889   
     49. A(H   7,H   5,H  16)           91.9766         0.099106   
     50. A(O   3,H   5,O  15)          158.3358         0.198060   
     51. A(O   3,H   5,H  16)          132.6293         0.136904   
     52. A(H   7,H   5,O  15)          111.2749         0.112008   
     53. A(O   3,H   5,H   7)           49.5462         0.137154   
     54. A(H   8,O   6,H  13)          125.6646         0.203028   
     55. A(H   7,O   6,H   8)          106.2686         0.316831   
     56. A(H   8,O   6,H  11)          130.9632         0.183628   
     57. A(H   7,O   6,H  11)           89.8273         0.181383   
     58. A(H  11,O   6,H  13)           92.4586         0.135238   
     59. A(H   7,O   6,H  13)          104.2743         0.200324   
     60. A(O   3,H   7,H  11)          104.5211         0.113078   
     61. A(H   4,H   7,H  13)           95.1792         0.098766   
     62. A(O   3,H   7,H   4)           26.7805         0.116450   
     63. A(H   4,H   7,O   6)          140.2320         0.138907   
     64. A(H   5,H   7,H  13)          134.0648         0.098302   
     65. A(O   3,H   7,H  13)          120.2990         0.112939   
     66. A(O   3,H   7,O   6)          166.1473         0.211339   
     67. A(H   4,H   7,H   5)           41.8630         0.099666   
     68. A(O   6,H   7,H  13)           50.8439         0.132524   
     69. A(O   6,H   7,H  11)           64.3565         0.132777   
     70. A(O   3,H   7,H   5)           25.6839         0.115146   
     71. A(H  11,H   7,H  13)           75.9447         0.097566   
     72. A(H   4,H   7,H  11)           90.2440         0.098822   
     73. A(H   5,H   7,O   6)          149.6388         0.136536   
     74. A(H   5,H   7,H  11)           86.8776         0.098356   
     75. A(H  10,O   9,H  11)          103.3663         0.319192   
     76. A(H  11,O   9,H  16)           99.7776         0.201790   
     77. A(H  10,O   9,H  16)          103.4719         0.201706   
     78. A(O   0,H  10,H   1)           24.4821         0.107013   
     79. A(H   1,H  10,O   9)          142.3549         0.131081   
     80. A(O   0,H  10,O   9)          159.0703         0.187463   
     81. A(O   0,H  10,H  16)          119.9940         0.108239   
     82. A(O   9,H  10,H  16)           51.8857         0.133945   
     83. A(H   1,H  10,H  16)          132.4378         0.097222   
     84. A(H   7,H  11,O   9)          128.0085         0.133551   
     85. A(O   6,H  11,O   9)          152.2159         0.183017   
     86. A(O   9,H  11,H  16)           54.6408         0.135906   
     87. A(O   6,H  11,H  16)          111.7695         0.108144   
     88. A(H   7,H  11,H  16)           88.5715         0.098071   
     89. A(O   6,H  11,H   7)           25.8161         0.107182   
     90. A(H  13,O  12,H  14)          105.4616         0.319331   
     91. A(H   1,O  12,H  14)          119.5194         0.206803   
     92. A(H   1,O  12,H  13)           99.3928         0.205302   
     93. A(O   6,H  13,O  12)          160.9419         0.201561   
     94. A(H   1,H  13,O  12)           54.2470         0.137217   
     95. A(O   6,H  13,H   7)           24.8818         0.110784   
     96. A(H   1,H  13,H   7)           87.1910         0.098331   
     97. A(H   7,H  13,O  12)          139.0876         0.133007   
     98. A(H   1,H  13,O   6)          106.7159         0.112867   
     99. A(H  16,O  15,H  17)          106.2239         0.319310   
    100. A(H   5,O  15,H  17)          132.9334         0.199351   
    101. A(H   5,O  15,H  16)           95.0284         0.197757   
    102. A(H   5,H  16,O  15)           58.4368         0.136771   
    103. A(H  10,H  16,H  11)           39.7390         0.098158   
    104. A(O   9,H  16,H  11)           25.5816         0.111966   
    105. A(H   5,H  16,H  11)           88.2932         0.098799   
    106. A(H  11,H  16,O  15)          138.6152         0.135561   
    107. A(O   9,H  16,H  10)           24.6424         0.111022   
    108. A(H   5,H  16,H  10)           86.5092         0.098396   
    109. A(H  10,H  16,O  15)          142.5658         0.133647   
    110. A(H   5,H  16,O   9)          102.8661         0.112563   
    111. A(O   9,H  16,O  15)          160.7985         0.200959   
    112. D(H  13,H   1,O   0,H   4)     38.2361         0.382600   
    113. D(H  10,H   1,O   0,H   2)   -138.5912         0.382600   
    114. D(H  13,H   1,O   0,H   2)    173.7263         0.382600   
    115. D(O  12,H   1,O   0,H  10)    -44.4494         0.382600   
    116. D(O  12,H   1,O   0,H   4)     41.4693         0.382600   
    117. D(O  12,H   1,O   0,H   2)    176.9594         0.382600   
    118. D(H  10,H   1,O   0,H   4)     85.9186         0.382600   
    119. D(H  13,H   1,O   0,H  10)    -47.6825         0.382600   
    120. D(O   0,H   4,O   3,H   5)    -88.0836         0.358633   
    121. D(H   7,H   4,O   0,H   1)    -40.3714         0.001582   
    122. D(H   7,H   4,O   3,H   5)   -108.3245         0.358633   
    123. D(O   0,H   4,O   3,H   7)     20.2409         0.358633   
    124. D(O   3,H   4,O   0,H  10)     40.1989         0.001582   
    125. D(H   7,H   4,O   0,H   2)   -163.1930         0.001582   
    126. D(O   3,H   4,O   0,H   1)    -56.7337         0.001582   
    127. D(O   3,H   4,O   0,H   2)   -179.5553         0.001582   
    128. D(H   7,H   4,O   0,H  10)     56.5612         0.001582   
    129. D(H   7,H   5,O   3,H   4)    105.1792         0.373690   
    130. D(H  16,H   5,O   3,H   4)     61.5053         0.373690   
    131. D(O  15,H   5,O   3,H   4)     73.9324         0.373690   
    132. D(H  16,H   5,O   3,H   7)    -43.6739         0.373690   
    133. D(O  15,H   5,O   3,H   7)    -31.2469         0.373690   
    134. D(H   4,H   7,O   6,H  13)     37.2047         0.395198   
    135. D(H   4,H   7,O   3,H   5)    107.8298         0.002365   
    136. D(H  13,H   7,O   6,H  11)    -92.4930         0.395198   
    137. D(O   3,H   7,H   5,H  16)    149.4441         0.001523   
    138. D(O   3,H   7,O   6,H   8)   -171.2792         0.395198   
    139. D(O   3,H   7,O   6,H  11)    -38.2757         0.395198   
    140. D(H  11,H   7,O   3,H   5)     48.0566         0.002365   
    141. D(H   5,H   7,O   6,H   8)   -112.8945         0.395198   
    142. D(H  13,H   7,O   3,H   4)     22.2244         0.002365   
    143. D(H  11,H   7,H   5,O  15)     34.2878         0.001523   
    144. D(H  11,H   7,H   5,O   3)   -133.8533         0.001523   
    145. D(H   4,H   7,H   5,O   3)    -39.9963         0.001523   
    146. D(H   4,H   7,H   5,O  15)    128.1449         0.001523   
    147. D(O   6,H   7,O   3,H   5)     83.2867         0.002365   
    148. D(H  13,H   7,H   5,H  16)     82.5564         0.001523   
    149. D(H  13,H   7,O   3,H   5)    130.0542         0.002365   
    150. D(O   6,H   7,O   3,H   4)    -24.5431         0.002365   
    151. D(H  11,H   7,H   5,H  16)     15.5908         0.001523   
    152. D(O   6,H   7,H   5,O   3)   -151.9370         0.001523   
    153. D(H  11,H   7,H   4,O   0)    -47.7862         0.001533   
    154. D(H  13,H   7,H   4,O   3)   -160.8581         0.001533   
    155. D(H  13,H   7,O   6,H   8)    134.5035         0.395198   
    156. D(O   3,H   7,H   5,O  15)    168.1412         0.001523   
    157. D(H  13,H   7,H   5,O  15)    101.2535         0.001523   
    158. D(H  13,H   7,H   4,O   0)     28.1223         0.001533   
    159. D(H   5,H   7,H   4,O   3)     38.1884         0.001533   
    160. D(H   5,H   7,H   4,O   0)   -132.8312         0.001533   
    161. D(H   4,H   7,H   5,H  16)    109.4479         0.001523   
    162. D(H  11,H   7,H   4,O   3)    123.2333         0.001533   
    163. D(O   6,H   7,H   5,H  16)     -2.4928         0.001523   
    164. D(O   3,H   7,O   6,H  13)     54.2173         0.395198   
    165. D(O   6,H   7,H   5,O  15)     16.2042         0.001523   
    166. D(H  11,H   7,O   6,H  13)     92.4930         0.395198   
    167. D(H   5,H   7,O   3,H   4)   -107.8298         0.002365   
    168. D(H  11,H   7,O   3,H   4)    -59.7732         0.002365   
    169. D(H   4,H   7,O   6,H   8)    171.7082         0.395198   
    170. D(H  11,H   7,O   6,H   8)   -133.0035         0.395198   
    171. D(H   4,H   7,O   6,H  11)    -55.2883         0.395198   
    172. D(H   5,H   7,O   6,H  13)    112.6020         0.395198   
    173. D(O   6,H   7,H   4,O   3)    171.0558         0.001533   
    174. D(O   6,H   7,H   4,O   0)      0.0363         0.001533   
    175. D(H   5,H   7,O   6,H  11)     20.1090         0.395198   
    176. D(H  13,H   7,H   5,O   3)    -66.8877         0.001523   
    177. D(O   3,H   7,H   4,O   0)   -171.0195         0.001533   
    178. D(H   1,H  10,O   9,H  16)    112.7795         0.390518   
    179. D(H   1,H  10,O   9,H  11)      9.1046         0.390518   
    180. D(O   0,H  10,O   9,H  16)     74.1849         0.390518   
    181. D(O   0,H  10,O   9,H  11)    -29.4900         0.390518   
    182. D(H  16,H  10,H   1,H  13)     81.0366         0.001506   
    183. D(H  16,H  10,H   1,O  12)     98.9224         0.001506   
    184. D(H  16,H  10,H   1,O   0)    -68.0727         0.001506   
    185. D(O   0,H  10,H   1,H  13)    149.1093         0.001506   
    186. D(O   0,H  10,H   1,O  12)    166.9951         0.001506   
    187. D(O   9,H  10,H   1,O  12)     19.5238         0.001506   
    188. D(H  16,H  10,O   0,H   1)    127.7691         0.001597   
    189. D(H   1,H  10,O   0,H   4)   -103.0227         0.001597   
    190. D(H   1,H  10,O   0,H   2)    120.8181         0.001597   
    191. D(H  16,H  10,O   0,H   2)   -111.4129         0.001597   
    192. D(O   9,H  10,O   0,H   4)    -36.1869         0.001597   
    193. D(H  16,H  10,O   0,H   4)     24.7463         0.001597   
    194. D(O   9,H  10,O   0,H   2)   -172.3461         0.001597   
    195. D(O   9,H  10,O   0,H   1)     66.8358         0.001597   
    196. D(O   9,H  10,H   1,H  13)      1.6380         0.001506   
    197. D(H  16,H  10,O   9,H  11)   -103.6749         0.390518   
    198. D(O   9,H  10,H   1,O   0)   -147.4713         0.001506   
    199. D(H  16,H  11,O   9,H  10)    106.4949         0.393833   
    200. D(H   7,H  11,O   9,H  16)    -53.6042         0.393833   
    201. D(H   7,H  11,O   9,H  10)     52.8907         0.393833   
    202. D(O   6,H  11,O   9,H  10)     38.2838         0.393833   
    203. D(H  16,H  11,H   7,H   5)    -15.3627         0.001511   
    204. D(H  16,H  11,H   7,H   4)    -57.1100         0.001511   
    205. D(H  16,H  11,H   7,H  13)   -152.3883         0.001511   
    206. D(H  16,H  11,H   7,O   6)    154.6147         0.001511   
    207. D(O   6,H  11,H   7,H   5)   -169.9775         0.001511   
    208. D(O   6,H  11,H   7,H   4)    148.2752         0.001511   
    209. D(O   9,H  11,H   7,H   5)     25.6832         0.001511   
    210. D(O   9,H  11,H   7,H  13)   -111.3424         0.001511   
    211. D(O   9,H  11,H   7,O   6)   -164.3394         0.001511   
    212. D(H   7,H  11,O   6,H  13)   -104.2801         0.001564   
    213. D(H   7,H  11,O   6,H   8)    111.6151         0.001564   
    214. D(O   9,H  11,O   6,H  13)    -77.1329         0.001564   
    215. D(H  16,H  11,O   6,H   7)    -27.4827         0.001564   
    216. D(O   9,H  11,O   6,H   8)    138.7622         0.001564   
    217. D(H  16,H  11,H   7,O   3)    -34.1980         0.001511   
    218. D(O   9,H  11,O   6,H   7)     27.1472         0.001564   
    219. D(H  16,H  11,O   6,H   8)     84.1324         0.001564   
    220. D(O   9,H  11,H   7,O   3)      6.8478         0.001511   
    221. D(O   6,H  11,O   9,H  16)    -68.2111         0.393833   
    222. D(O   9,H  11,H   7,H   4)    -16.0642         0.001511   
    223. D(O   6,H  11,H   7,O   3)    171.1872         0.001511   
    224. D(O   6,H  11,H   7,H  13)     52.9970         0.001511   
    225. D(H  16,H  11,O   6,H  13)   -131.7628         0.001564   
    226. D(H  14,O  12,H   1,H  10)     70.0774         0.001924   
    227. D(H  14,O  12,H   1,H  13)    113.8402         0.001924   
    228. D(H  14,O  12,H   1,O   0)    108.7807         0.001924   
    229. D(H  13,O  12,H   1,H  10)    -43.7628         0.001924   
    230. D(H  13,O  12,H   1,O   0)     -5.0596         0.001924   
    231. D(H   7,H  13,H   1,O  12)    165.3865         0.001521   
    232. D(H   7,H  13,H   1,O   0)    -16.8213         0.001521   
    233. D(O   6,H  13,H   1,H  10)    -39.7498         0.001521   
    234. D(O   6,H  13,H   1,O  12)   -178.9957         0.001521   
    235. D(O   6,H  13,H   1,O   0)     -1.2035         0.001521   
    236. D(O  12,H  13,H   1,H  10)    139.2459         0.001521   
    237. D(H   7,H  13,H   1,H  10)    -55.3676         0.001521   
    238. D(O  12,H  13,H   1,O   0)    177.7922         0.001521   
    239. D(H   7,H  13,O  12,H   1)    -22.6300         0.365804   
    240. D(H   7,H  13,O  12,H  14)   -146.9575         0.365804   
    241. D(O   6,H  13,O  12,H   1)      2.9468         0.365804   
    242. D(H   1,H  13,O  12,H  14)   -124.3275         0.365804   
    243. D(O   6,H  13,H   7,H  11)    -68.1941         0.001511   
    244. D(O   6,H  13,H   7,H   5)   -139.5036         0.001511   
    245. D(O   6,H  13,H   7,H   4)   -157.1464         0.001511   
    246. D(O   6,H  13,H   7,O   3)   -166.9994         0.001511   
    247. D(H   1,H  13,H   7,H  11)     74.0124         0.001511   
    248. D(H   1,H  13,H   7,H   5)      2.7028         0.001511   
    249. D(H   1,H  13,H   7,H   4)    -14.9400         0.001511   
    250. D(H   1,H  13,H   7,O   3)    -24.7930         0.001511   
    251. D(H   1,H  13,H   7,O   6)    142.2064         0.001511   
    252. D(O  12,H  13,H   7,H  11)     92.2308         0.001511   
    253. D(O  12,H  13,H   7,H   5)     20.9213         0.001511   
    254. D(O  12,H  13,H   7,H   4)      3.2785         0.001511   
    255. D(O  12,H  13,H   7,O   3)     -6.5745         0.001511   
    256. D(O  12,H  13,H   7,O   6)    160.4249         0.001511   
    257. D(H   7,H  13,O   6,H  11)     90.4476         0.001839   
    258. D(H   7,H  13,O   6,H   8)   -122.5732         0.001839   
    259. D(H   1,H  13,O   6,H  11)     50.7237         0.001839   
    260. D(H   1,H  13,O   6,H   8)   -162.2971         0.001839   
    261. D(O   6,H  13,O  12,H  14)   -121.3807         0.365804   
    262. D(H   1,H  13,O   6,H   7)    -39.7239         0.001839   
    263. D(O  12,H  13,O   6,H  11)     48.2271         0.001839   
    264. D(O  12,H  13,O   6,H   8)   -164.7938         0.001839   
    265. D(O  12,H  13,O   6,H   7)    -42.2205         0.001839   
    266. D(H  17,O  15,H   5,H  16)   -117.7064         0.001732   
    267. D(H  17,O  15,H   5,H   7)   -163.5248         0.001732   
    268. D(H  17,O  15,H   5,O   3)   -138.4640         0.001732   
    269. D(H  16,O  15,H   5,H   7)    -45.8184         0.001732   
    270. D(H  16,O  15,H   5,O   3)    -20.7576         0.001732   
    271. D(H  11,H  16,O  15,H   5)     41.4049         0.390563   
    272. D(H  11,H  16,O  15,H  17)    178.9443         0.390563   
    273. D(H  10,H  16,O  15,H  17)    114.4750         0.390563   
    274. D(O   9,H  16,O  15,H   5)     14.2252         0.390563   
    275. D(O   9,H  16,O  15,H  17)    151.7646         0.390563   
    276. D(H  10,H  16,H  11,H   7)    101.8932         0.001517   
    277. D(H  10,H  16,H  11,O   6)    113.4904         0.001517   
    278. D(H  10,H  16,H  11,O   9)    -38.7296         0.001517   
    279. D(O   9,H  16,H  11,H   7)    140.6228         0.001517   
    280. D(O   9,H  16,H  11,O   6)    152.2200         0.001517   
    281. D(H   5,H  16,H  11,H   7)     15.3011         0.001517   
    282. D(H   5,H  16,H  11,O   6)     26.8983         0.001517   
    283. D(O  15,H  16,H  11,H   7)    -19.0168         0.001517   
    284. D(O  15,H  16,H  11,O   6)     -7.4196         0.001517   
    285. D(O  15,H  16,H  11,O   9)   -159.6396         0.001517   
    286. D(H  11,H  16,H  10,O   0)   -116.2340         0.001511   
    287. D(H  11,H  16,H  10,O   9)     40.3848         0.001511   
    288. D(O   9,H  16,H  10,H   1)   -130.2674         0.001511   
    289. D(O   9,H  16,H  10,O   0)   -156.6188         0.001511   
    290. D(H   5,H  16,H  10,H   1)      1.6473         0.001511   
    291. D(H   5,H  16,H  10,O   0)    -24.7041         0.001511   
    292. D(H   5,H  16,H  10,O   9)    131.9147         0.001511   
    293. D(O  15,H  16,H  10,H   1)     21.1851         0.001511   
    294. D(O  15,H  16,H  10,O   0)     -5.1663         0.001511   
    295. D(O  15,H  16,H  10,O   9)    151.4525         0.001511   
    296. D(H  11,H  16,O   9,H  10)   -106.4096         0.001826   
    297. D(H  11,H  16,H  10,H   1)    -89.8826         0.001511   
    298. D(H  10,H  16,O   9,H  11)    106.4096         0.001826   
    299. D(H   5,H  16,O   9,H  11)     56.7787         0.001826   
    300. D(H   5,H  16,O   9,H  10)    -49.6310         0.001826   
    301. D(H   5,H  16,H  11,O   9)   -125.3217         0.001517   
    302. D(O  15,H  16,O   9,H  11)     44.3765         0.001826   
    303. D(O  15,H  16,O   9,H  10)    -62.0332         0.001826   
    304. D(H  11,H  16,H   5,O  15)   -154.0594         0.001521   
    305. D(H  11,H  16,H   5,H   7)    -16.0232         0.001521   
    306. D(H  11,H  16,H   5,O   3)     15.6973         0.001521   
    307. D(H  10,H  16,H   5,O  15)    166.1975         0.001521   
    308. D(H  10,H  16,H   5,H   7)    -55.7663         0.001521   
    309. D(H   5,H  16,O  15,H  17)    137.5394         0.390563   
    310. D(H  10,H  16,H   5,O   3)    -24.0459         0.001521   
    311. D(O   9,H  16,H   5,O  15)   -175.2447         0.001521   
    312. D(O   9,H  16,H   5,H   7)    -37.2084         0.001521   
    313. D(H  10,H  16,O  15,H   5)    -23.0643         0.390563   
    314. D(O   9,H  16,H   5,O   3)     -5.4880         0.001521   
    315. D(O  15,H  16,H   5,H   7)    138.0362         0.001521   
    316. D(O  15,H  16,H   5,O   3)    169.7567         0.001521   
    -----------------------------------------------------------------

Number of atoms                         .... 18
Number of degrees of freedom            .... 316

         *************************************************************
         *                GEOMETRY OPTIMIZATION CYCLE   1            *
         *************************************************************
---------------------------------
CARTESIAN COORDINATES (ANGSTROEM)
---------------------------------
  O      0.862065   -1.728538   -0.448765
  H      1.679686   -1.216793   -0.290371
  H      1.141594   -2.607406   -0.709910
  O     -0.751083    0.359939   -1.648316
  H     -0.283702   -0.473988   -1.502279
  H     -1.624922    0.215720   -1.247934
  O      0.590537    1.756310    0.198185
  H      0.069166    1.374794   -0.548651
  H      0.493944    2.707937    0.134574
  O     -0.675492   -0.446436    1.665684
  H     -0.188802   -1.063799    1.102054
  H     -0.260662    0.405216    1.474464
  O      2.803582    0.112403    0.084677
  H      2.165098    0.844551    0.158067
  H      3.282044    0.106258    0.915526
  O     -2.901034    0.010949    0.089937
  H     -2.258917   -0.224605    0.785219
  H     -3.643112   -0.584893    0.198028

----------------------------
CARTESIAN COORDINATES (A.U.)
----------------------------
  NO LB      ZA    FRAG     MASS         X           Y           Z
   0 O     8.0000    0    15.999    1.629067   -3.266463   -0.848043
   1 H     1.0000    0     1.008    3.174147   -2.299406   -0.548722
   2 H     1.0000    0     1.008    2.157300   -4.927283   -1.341535
   3 O     8.0000    0    15.999   -1.419341    0.680186   -3.114866
   4 H     1.0000    0     1.008   -0.536119   -0.895708   -2.838896
   5 H     1.0000    0     1.008   -3.070658    0.407652   -2.358253
   6 O     8.0000    0    15.999    1.115953    3.318945    0.374515
   7 H     1.0000    0     1.008    0.130705    2.597984   -1.036800
   8 H     1.0000    0     1.008    0.933419    5.117259    0.254308
   9 O     8.0000    0    15.999   -1.276495   -0.843642    3.147687
  10 H     1.0000    0     1.008   -0.356784   -2.010289    2.082580
  11 H     1.0000    0     1.008   -0.492580    0.765747    2.786333
  12 O     8.0000    0    15.999    5.298002    0.212411    0.160016
  13 H     1.0000    0     1.008    4.091442    1.595970    0.298703
  14 H     1.0000    0     1.008    6.202164    0.200799    1.730093
  15 O     8.0000    0    15.999   -5.482160    0.020691    0.169956
  16 H     1.0000    0     1.008   -4.268734   -0.424442    1.483849
  17 H     1.0000    0     1.008   -6.884484   -1.105288    0.374219

--------------------------------
INTERNAL COORDINATES (ANGSTROEM)
--------------------------------
 O      0   0   0     0.000000000000     0.00000000     0.00000000
 H      1   0   0     0.977484375273     0.00000000     0.00000000
 H      1   2   0     0.958510372552   106.27493477     0.00000000
 O      1   2   3     2.898776509328    98.93693428   217.36379635
 H      4   1   2     0.967060518199    17.68774027   124.66962170
 H      4   1   2     0.971956513331   102.88229172   220.86105108
 O      4   1   2     2.675698439107    79.12826050   323.03614401
 H      7   4   1     0.987494905705     8.78327180   161.28394938
 H      7   4   1     0.958629497824   114.94475867   170.52118116
 O      1   2   3     2.911831320708    95.36473628   144.88244721
 H     10   1   2     0.967307090209    14.11441329   246.09798043
 H     10   1   2     0.966416135215    91.01309885    37.47709467
 O      2   1   3     1.780608106108   162.34472926   176.95939705
 H     13   2   1     0.974211786143    99.39275309   354.94041717
 H     13   2   1     0.958787623653   119.51943813   108.78066515
 O      6   4   1     1.860185961571   158.33582154    55.78272716
 H     16   6   4     0.975303536408    95.02843990   339.24242281
 H     16   6   4     0.957805361923   132.93336833   221.53603047

---------------------------
INTERNAL COORDINATES (A.U.)
---------------------------
 O      0   0   0     0.000000000000     0.00000000     0.00000000
 H      1   0   0     1.847177769452     0.00000000     0.00000000
 H      1   2   0     1.811322100646   106.27493477     0.00000000
 O      1   2   3     5.477893726075    98.93693428   217.36379635
 H      4   1   2     1.827479534324    17.68774027   124.66962170
 H      4   1   2     1.836731624276   102.88229172   220.86105108
 O      4   1   2     5.056337266874    79.12826050   323.03614401
 H      7   4   1     1.866094930425     8.78327180   161.28394938
 H      7   4   1     1.811547214787   114.94475867   170.52118116
 O      1   2   3     5.502563744312    95.36473628   144.88244721
 H     10   1   2     1.827945487896    14.11441329   246.09798043
 H     10   1   2     1.826261826959    91.01309885    37.47709467
 O      2   1   3     3.364861672384   162.34472926   176.95939705
 H     13   2   1     1.840993472249    99.39275309   354.94041717
 H     13   2   1     1.811846029297   119.51943813   108.78066515
 O      6   4   1     3.515242025534   158.33582154    55.78272716
 H     16   6   4     1.843056581255    95.02843990   339.24242281
 H     16   6   4     1.809989823636   132.93336833   221.53603047

---------------------
BASIS SET INFORMATION
---------------------
There are 2 groups of distinct atoms

 Group   1 Type O   : 19s6p3d2f contracted to 5s4p3d2f pattern {88111/3111/111/11}
 Group   2 Type H   : 6s3p2d contracted to 4s3p2d pattern {3111/111/11}

Atom   0O    basis set group =>   1
Atom   1H    basis set group =>   2
Atom   2H    basis set group =>   2
Atom   3O    basis set group =>   1
Atom   4H    basis set group =>   2
Atom   5H    basis set group =>   2
Atom   6O    basis set group =>   1
Atom   7H    basis set group =>   2
Atom   8H    basis set group =>   2
Atom   9O    basis set group =>   1
Atom  10H    basis set group =>   2
Atom  11H    basis set group =>   2
Atom  12O    basis set group =>   1
Atom  13H    basis set group =>   2
Atom  14H    basis set group =>   2
Atom  15O    basis set group =>   1
Atom  16H    basis set group =>   2
Atom  17H    basis set group =>   2
----------------------------------
AUXILIARY/JK BASIS SET INFORMATION
----------------------------------
There are 2 groups of distinct atoms

 Group   1 Type O   : 14s10p6d2f1g contracted to 10s8p4d2f1g pattern {5111111111/31111111/3111/11/1}
 Group   2 Type H   : 4s2p2d contracted to 2s2p2d pattern {31/11/11}

Atom   0O    basis set group =>   1
Atom   1H    basis set group =>   2
Atom   2H    basis set group =>   2
Atom   3O    basis set group =>   1
Atom   4H    basis set group =>   2
Atom   5H    basis set group =>   2
Atom   6O    basis set group =>   1
Atom   7H    basis set group =>   2
Atom   8H    basis set group =>   2
Atom   9O    basis set group =>   1
Atom  10H    basis set group =>   2
Atom  11H    basis set group =>   2
Atom  12O    basis set group =>   1
Atom  13H    basis set group =>   2
Atom  14H    basis set group =>   2
Atom  15O    basis set group =>   1
Atom  16H    basis set group =>   2
Atom  17H    basis set group =>   2


           ************************************************************
           *        Program running with 24 parallel MPI-processes    *
           *              working on a common directory               *
           ************************************************************
------------------------------------------------------------------------------
                           ORCA GTO INTEGRAL CALCULATION
------------------------------------------------------------------------------

                         BASIS SET STATISTICS AND STARTUP INFO

 # of primitive gaussian shells          ...  312
 # of primitive gaussian functions       ...  696
 # of contracted shells                  ...  192
 # of contracted basis functions         ...  552
 Highest angular momentum                ...    3
 Maximum contraction depth               ...    8
 Integral package used                   ... LIBINT
 Integral threshhold            Thresh   ...  2.500e-11
 Primitive cut-off              TCut     ...  2.500e-12


------------------------------ INTEGRAL EVALUATION ----------------------------


 * One electron integrals 
 Pre-screening matrix                    ... done
 Shell pair data                         ... done (   0.006 sec)



           ************************************************************
           *        Program running with 24 parallel MPI-processes    *
           *              working on a common directory               *
           ************************************************************
-------------------------------------------------------------------------------
                                 ORCA SCF
-------------------------------------------------------------------------------

------------
SCF SETTINGS
------------
Hamiltonian:
 Density Functional     Method          .... DFT(GTOs)
 Exchange Functional    Exchange        .... TPSS
 Correlation Functional Correlation     .... TPSS
 LDA part of GGA corr.  LDAOpt          .... PW91-LDA
 Gradients option       PostSCFGGA      .... off
 Hybrid DFT is turned on
   Fraction HF Exchange ScalHFX         ....  0.100000
   Scaling of DF-GGA-X  ScalDFX         ....  0.900000
   Scaling of DF-GGA-C  ScalDFC         ....  1.000000
   Scaling of DF-LDA-C  ScalLDAC        ....  1.000000
   Perturbative correction              ....  0.000000
   Density functional embedding theory  .... OFF
   NL short-range parameter             ....  5.200000


General Settings:
 Integral files         IntName         .... 08_H2O_6_cage
 Hartree-Fock type      HFTyp           .... RHF
 Total Charge           Charge          ....    0
 Multiplicity           Mult            ....    1
 Number of Electrons    NEL             ....   60
 Basis Dimension        Dim             ....  552
 Nuclear Repulsion      ENuc            ....    300.0964983793 Eh

Convergence Acceleration:
 DIIS                   CNVDIIS         .... on
   Start iteration      DIISMaxIt       ....    12
   Startup error        DIISStart       ....  0.200000
   # of expansion vecs  DIISMaxEq       ....     5
   Bias factor          DIISBfac        ....   1.050
   Max. coefficient     DIISMaxC        ....  10.000
 Newton-Raphson         CNVNR           .... off
 SOSCF                  CNVSOSCF        .... on
   Start iteration      SOSCFMaxIt      ....   150
   Startup grad/error   SOSCFStart      ....  0.003300
 Level Shifting         CNVShift        .... on
   Level shift para.    LevelShift      ....    0.2500
   Turn off err/grad.   ShiftErr        ....    0.0010
 Zerner damping         CNVZerner       .... off
 Static damping         CNVDamp         .... on
   Fraction old density DampFac         ....    0.7000
   Max. Damping (<1)    DampMax         ....    0.9800
   Min. Damping (>=0)   DampMin         ....    0.0000
   Turn off err/grad.   DampErr         ....    0.1000
 Fernandez-Rico         CNVRico         .... off

SCF Procedure:
 Maximum # iterations   MaxIter         ....   125
 SCF integral mode      SCFMode         .... Direct
   Integral package                     .... LIBINT
 Reset frequency        DirectResetFreq ....    20
 Integral Threshold     Thresh          ....  2.500e-11 Eh
 Primitive CutOff       TCut            ....  2.500e-12 Eh

Convergence Tolerance:
 Convergence Check Mode ConvCheckMode   .... Total+1el-Energy
 Convergence forced     ConvForced      .... 0
 Energy Change          TolE            ....  1.000e-08 Eh
 1-El. energy change                    ....  1.000e-05 Eh
 Orbital Gradient       TolG            ....  1.000e-05
 Orbital Rotation angle TolX            ....  1.000e-05
 DIIS Error             TolErr          ....  5.000e-07


Diagonalization of the overlap matrix:
Smallest eigenvalue                        ... 3.507e-05
Time for diagonalization                   ...    0.044 sec
Threshold for overlap eigenvalues          ... 1.000e-08
Number of eigenvalues below threshold      ... 0
Time for construction of square roots      ...    0.047 sec
Total time needed                          ...    0.092 sec

-------------------
DFT GRID GENERATION
-------------------

General Integration Accuracy     IntAcc      ...  4.670
Radial Grid Type                 RadialGrid  ... Gauss-Chebyshev
Angular Grid (max. acc.)         AngularGrid ... Lebedev-302
Angular grid pruning method      GridPruning ... 3 (G Style)
Weight generation scheme         WeightScheme... Becke
Basis function cutoff            BFCut       ...    1.0000e-11
Integration weight cutoff        WCut        ...    1.0000e-14
Grids for H and He will be reduced by one unit

# of grid points (after initial pruning)     ...  78000 (   0.0 sec)
# of grid points (after weights+screening)   ...  71821 (   0.0 sec)
nearest neighbour list constructed           ...    0.0 sec
Grid point re-assignment to atoms done       ...    0.0 sec
Grid point division into batches done        ...    0.2 sec
Reduced shell lists constructed in    0.3 sec

Total number of grid points                  ...    71821
Total number of batches                      ...     1132
Average number of points per batch           ...       63
Average number of grid points per atom       ...     3990
Average number of shells per batch           ...   145.08 (75.56%)
Average number of basis functions per batch  ...   406.39 (73.62%)
Average number of large shells per batch     ...   117.55 (81.02%)
Average number of large basis fcns per batch ...   321.27 (79.05%)
Maximum spatial batch extension              ...   2.85,  2.34,  2.33 au
Average spatial batch extension              ...   0.04,  0.04,  0.04 au

Time for grid setup =    0.381 sec

------------------------------
INITIAL GUESS: MODEL POTENTIAL
------------------------------
Loading Hartree-Fock densities                     ... done
Calculating cut-offs                               ... done
Setting up the integral package                    ... done
Initializing the effective Hamiltonian             ... done
Starting the Coulomb interaction                   ... done (   0.0 sec)
Reading the grid                                   ... done
Mapping shells                                     ... done
Starting the XC term evaluation                    ... done (   0.2 sec)
  promolecular density results
     # of electrons  =     59.993214953
     EX              =    -52.455022871
     EC              =     -1.948911673
     EX+EC           =    -54.403934544
Transforming the Hamiltonian                       ... done (   0.0 sec)
Diagonalizing the Hamiltonian                      ... done (   0.0 sec)
Back transforming the eigenvectors                 ... done (   0.0 sec)
Now organizing SCF variables                       ... done
                      ------------------
                      INITIAL GUESS DONE (   0.7 sec)
                      ------------------
--------------
SCF ITERATIONS
--------------
ITER       Energy         Delta-E        Max-DP      RMS-DP      [F,P]     Damp
               ***  Starting incremental Fock matrix formation  ***
  0   -458.3774369113   0.000000000000 0.09816772  0.00103075  0.3226591 0.7000
  1   -458.5980773719  -0.220640460622 0.04656445  0.00059447  0.1245469 0.7000
                               ***Turning on DIIS***
  2   -458.6665837257  -0.068506353761 0.06118315  0.00077438  0.0283360 0.0000
  3   -458.7901413337  -0.123557608023 0.02132045  0.00028714  0.0728235 0.0000
  4   -458.8142021253  -0.024060791545 0.00345401  0.00006385  0.0145768 0.0000
  5   -458.8153171209  -0.001114995677 0.00245272  0.00002496  0.0041350 0.0000
                      *** Initiating the SOSCF procedure ***
                           *** Shutting down DIIS ***
                      *** Re-Reading the Fockian *** 
                      *** Removing any level shift *** 
ITER      Energy       Delta-E        Grad      Rot      Max-DP    RMS-DP
  6   -458.81538234  -0.0000652223  0.000299  0.000299  0.001414  0.000014
               *** Restarting incremental Fock matrix formation ***
  7   -458.81539649  -0.0000141443  0.000121  0.000384  0.001121  0.000011
  8   -458.81539728  -0.0000007928  0.000063  0.000099  0.000477  0.000005
  9   -458.81539774  -0.0000004609  0.000028  0.000108  0.000363  0.000003
 10   -458.81539786  -0.0000001150  0.000009  0.000012  0.000036  0.000000
 11   -458.81539786  -0.0000000009  0.000011  0.000008  0.000038  0.000000
                  ***Gradient check signals convergence***
              ***Rediagonalizing the Fockian in SOSCF/NRSCF***

               *****************************************************
               *                     SUCCESS                       *
               *           SCF CONVERGED AFTER  12 CYCLES          *
               *****************************************************


----------------
TOTAL SCF ENERGY
----------------

Total Energy       :         -458.81539787 Eh          -12485.00170 eV

Components:
Nuclear Repulsion  :          300.09649838 Eh            8166.04087 eV
Electronic Energy  :         -758.91189624 Eh          -20651.04258 eV
One Electron Energy:        -1228.22834222 Eh          -33421.79232 eV
Two Electron Energy:          469.31644598 Eh           12770.74975 eV

Virial components:
Potential Energy   :         -915.47331977 Eh          -24911.29550 eV
Kinetic Energy     :          456.65792191 Eh           12426.29380 eV
Virial Ratio       :            2.00472449


DFT components:
N(Alpha)           :       29.999847331483 electrons
N(Beta)            :       29.999847331483 electrons
N(Total)           :       59.999694662967 electrons
E(X)               :      -48.695551110257 Eh       
E(C)               :       -1.999346899618 Eh       
E(XC)              :      -50.694898009875 Eh       
DFET-embed. en.    :        0.000000000000 Eh       

---------------
SCF CONVERGENCE
---------------

  Last Energy change         ...   -7.9742e-09  Tolerance :   1.0000e-08
  Last MAX-Density change    ...    2.4944e-05  Tolerance :   1.0000e-07
  Last RMS-Density change    ...    2.5915e-07  Tolerance :   5.0000e-09
  Last Orbital Gradient      ...    8.4740e-07  Tolerance :   1.0000e-05
  Last Orbital Rotation      ...    2.0908e-06  Tolerance :   1.0000e-05

             **** THE GBW FILE WAS UPDATED (08_H2O_6_cage.gbw) ****
             **** DENSITY FILE WAS UPDATED (08_H2O_6_cage.scfp) ****
             **** ENERGY FILE WAS UPDATED (08_H2O_6_cage.en.tmp) ****
             **** THE GBW FILE WAS UPDATED (08_H2O_6_cage.gbw) ****
             **** DENSITY FILE WAS UPDATED (08_H2O_6_cage.scfp) ****
----------------
ORBITAL ENERGIES
----------------

  NO   OCC          E(Eh)            E(eV) 
   0   2.0000     -19.069459      -518.9064 
   1   2.0000     -19.065330      -518.7940 
   2   2.0000     -19.065113      -518.7881 
   3   2.0000     -19.046649      -518.2857 
   4   2.0000     -19.044861      -518.2370 
   5   2.0000     -19.041473      -518.1448 
   6   2.0000      -1.013854       -27.5884 
   7   2.0000      -1.003269       -27.3003 
   8   2.0000      -0.997391       -27.1404 
   9   2.0000      -0.988317       -26.8935 
  10   2.0000      -0.979963       -26.6662 
  11   2.0000      -0.972048       -26.4508 
  12   2.0000      -0.538928       -14.6650 
  13   2.0000      -0.527216       -14.3463 
  14   2.0000      -0.517266       -14.0755 
  15   2.0000      -0.512448       -13.9444 
  16   2.0000      -0.498317       -13.5599 
  17   2.0000      -0.494335       -13.4515 
  18   2.0000      -0.421216       -11.4619 
  19   2.0000      -0.393730       -10.7139 
  20   2.0000      -0.386484       -10.5168 
  21   2.0000      -0.369611       -10.0576 
  22   2.0000      -0.368314       -10.0223 
  23   2.0000      -0.346259        -9.4222 
  24   2.0000      -0.314308        -8.5528 
  25   2.0000      -0.311511        -8.4766 
  26   2.0000      -0.307033        -8.3548 
  27   2.0000      -0.294388        -8.0107 
  28   2.0000      -0.286626        -7.7995 
  29   2.0000      -0.284229        -7.7343 
  30   0.0000      -0.029291        -0.7971 
  31   0.0000      -0.006583        -0.1791 
  32   0.0000      -0.004505        -0.1226 
  33   0.0000       0.008389         0.2283 
  34   0.0000       0.025281         0.6879 
  35   0.0000       0.038265         1.0412 
  36   0.0000       0.039299         1.0694 
  37   0.0000       0.043960         1.1962 
  38   0.0000       0.044640         1.2147 
  39   0.0000       0.059407         1.6165 
  40   0.0000       0.065021         1.7693 
  41   0.0000       0.070620         1.9217 
  42   0.0000       0.073222         1.9925 
  43   0.0000       0.085565         2.3283 
  44   0.0000       0.090891         2.4733 
  45   0.0000       0.097221         2.6455 
  46   0.0000       0.111462         3.0330 
  47   0.0000       0.115506         3.1431 
  48   0.0000       0.118471         3.2238 
  49   0.0000       0.126126         3.4321 
  50   0.0000       0.126612         3.4453 
  51   0.0000       0.129584         3.5261 
  52   0.0000       0.136945         3.7265 
  53   0.0000       0.146456         3.9853 
  54   0.0000       0.152215         4.1420 
  55   0.0000       0.152898         4.1606 
  56   0.0000       0.157022         4.2728 
  57   0.0000       0.157950         4.2980 
  58   0.0000       0.163580         4.4512 
  59   0.0000       0.166713         4.5365 
  60   0.0000       0.168911         4.5963 
  61   0.0000       0.187969         5.1149 
  62   0.0000       0.188588         5.1318 
  63   0.0000       0.191708         5.2166 
  64   0.0000       0.199002         5.4151 
  65   0.0000       0.203907         5.5486 
  66   0.0000       0.211362         5.7515 
  67   0.0000       0.213516         5.8101 
  68   0.0000       0.217545         5.9197 
  69   0.0000       0.225990         6.1495 
  70   0.0000       0.230465         6.2713 
  71   0.0000       0.245443         6.6788 
  72   0.0000       0.253144         6.8884 
  73   0.0000       0.257183         6.9983 
  74   0.0000       0.263104         7.1594 
  75   0.0000       0.272952         7.4274 
  76   0.0000       0.275164         7.4876 
  77   0.0000       0.292443         7.9578 
  78   0.0000       0.296046         8.0558 
  79   0.0000       0.300199         8.1688 
  80   0.0000       0.304685         8.2909 
  81   0.0000       0.313574         8.5328 
  82   0.0000       0.323745         8.8095 
  83   0.0000       0.327023         8.8987 
  84   0.0000       0.329762         8.9733 
  85   0.0000       0.338598         9.2137 
  86   0.0000       0.340730         9.2717 
  87   0.0000       0.346540         9.4298 
  88   0.0000       0.350121         9.5273 
  89   0.0000       0.353017         9.6061 
  90   0.0000       0.358923         9.7668 
  91   0.0000       0.363789         9.8992 
  92   0.0000       0.366586         9.9753 
  93   0.0000       0.373408        10.1609 
  94   0.0000       0.377840        10.2815 
  95   0.0000       0.382188        10.3999 
  96   0.0000       0.389330        10.5942 
  97   0.0000       0.395899        10.7730 
  98   0.0000       0.400994        10.9116 
  99   0.0000       0.411793        11.2055 
 100   0.0000       0.420844        11.4518 
 101   0.0000       0.425220        11.5708 
 102   0.0000       0.433091        11.7850 
 103   0.0000       0.434160        11.8141 
 104   0.0000       0.440028        11.9738 
 105   0.0000       0.447036        12.1645 
 106   0.0000       0.458592        12.4789 
 107   0.0000       0.472603        12.8602 
 108   0.0000       0.475667        12.9436 
 109   0.0000       0.488306        13.2875 
 110   0.0000       0.492314        13.3965 
 111   0.0000       0.505835        13.7645 
 112   0.0000       0.511281        13.9127 
 113   0.0000       0.516227        14.0472 
 114   0.0000       0.533089        14.5061 
 115   0.0000       0.550069        14.9681 
 116   0.0000       0.560753        15.2589 
 117   0.0000       0.567942        15.4545 
 118   0.0000       0.574397        15.6301 
 119   0.0000       0.576541        15.6885 
 120   0.0000       0.589489        16.0408 
 121   0.0000       0.601729        16.3739 
 122   0.0000       0.613080        16.6828 
 123   0.0000       0.618625        16.8336 
 124   0.0000       0.627275        17.0690 
 125   0.0000       0.632602        17.2140 
 126   0.0000       0.647738        17.6258 
 127   0.0000       0.652326        17.7507 
 128   0.0000       0.654390        17.8069 
 129   0.0000       0.659512        17.9462 
 130   0.0000       0.678846        18.4723 
 131   0.0000       0.684412        18.6238 
 132   0.0000       0.690109        18.7788 
 133   0.0000       0.701914        19.1001 
 134   0.0000       0.707003        19.2385 
 135   0.0000       0.710149        19.3241 
 136   0.0000       0.729319        19.8458 
 137   0.0000       0.735481        20.0134 
 138   0.0000       0.738659        20.0999 
 139   0.0000       0.750750        20.4289 
 140   0.0000       0.757268        20.6063 
 141   0.0000       0.765559        20.8319 
 142   0.0000       0.769789        20.9470 
 143   0.0000       0.783652        21.3242 
 144   0.0000       0.789881        21.4937 
 145   0.0000       0.793880        21.6026 
 146   0.0000       0.798520        21.7288 
 147   0.0000       0.809728        22.0338 
 148   0.0000       0.813264        22.1300 
 149   0.0000       0.823633        22.4122 
 150   0.0000       0.829882        22.5822 
 151   0.0000       0.833172        22.6718 
 152   0.0000       0.843436        22.9511 
 153   0.0000       0.847962        23.0742 
 154   0.0000       0.851796        23.1785 
 155   0.0000       0.853788        23.2328 
 156   0.0000       0.866778        23.5862 
 157   0.0000       0.871859        23.7245 
 158   0.0000       0.890065        24.2199 
 159   0.0000       0.895624        24.3712 
 160   0.0000       0.897152        24.4127 
 161   0.0000       0.902330        24.5537 
 162   0.0000       0.910578        24.7781 
 163   0.0000       0.920382        25.0449 
 164   0.0000       0.925384        25.1810 
 165   0.0000       0.938173        25.5290 
 166   0.0000       0.942761        25.6538 
 167   0.0000       0.952576        25.9209 
 168   0.0000       0.969844        26.3908 
 169   0.0000       0.971736        26.4423 
 170   0.0000       0.982573        26.7372 
 171   0.0000       0.993498        27.0345 
 172   0.0000       1.000860        27.2348 
 173   0.0000       1.002062        27.2675 
 174   0.0000       1.017930        27.6993 
 175   0.0000       1.018849        27.7243 
 176   0.0000       1.025634        27.9089 
 177   0.0000       1.036445        28.2031 
 178   0.0000       1.040736        28.3199 
 179   0.0000       1.045097        28.4385 
 180   0.0000       1.055818        28.7303 
 181   0.0000       1.061365        28.8812 
 182   0.0000       1.072359        29.1804 
 183   0.0000       1.076428        29.2911 
 184   0.0000       1.089904        29.6578 
 185   0.0000       1.094693        29.7881 
 186   0.0000       1.100608        29.9491 
 187   0.0000       1.104939        30.0669 
 188   0.0000       1.110209        30.2103 
 189   0.0000       1.116231        30.3742 
 190   0.0000       1.124544        30.6004 
 191   0.0000       1.132370        30.8134 
 192   0.0000       1.141930        31.0735 
 193   0.0000       1.143816        31.1248 
 194   0.0000       1.153413        31.3860 
 195   0.0000       1.162499        31.6332 
 196   0.0000       1.174778        31.9673 
 197   0.0000       1.179832        32.1048 
 198   0.0000       1.190656        32.3994 
 199   0.0000       1.199691        32.6453 
 200   0.0000       1.219058        33.1723 
 201   0.0000       1.224841        33.3296 
 202   0.0000       1.236908        33.6580 
 203   0.0000       1.237360        33.6703 
 204   0.0000       1.249152        33.9911 
 205   0.0000       1.250903        34.0388 
 206   0.0000       1.265212        34.4282 
 207   0.0000       1.278678        34.7946 
 208   0.0000       1.298232        35.3267 
 209   0.0000       1.304499        35.4972 
 210   0.0000       1.321609        35.9628 
 211   0.0000       1.331277        36.2259 
 212   0.0000       1.333933        36.2982 
 213   0.0000       1.337183        36.3866 
 214   0.0000       1.347807        36.6757 
 215   0.0000       1.365347        37.1530 
 216   0.0000       1.377398        37.4809 
 217   0.0000       1.388118        37.7726 
 218   0.0000       1.406350        38.2687 
 219   0.0000       1.416407        38.5424 
 220   0.0000       1.426894        38.8278 
 221   0.0000       1.443966        39.2923 
 222   0.0000       1.448814        39.4242 
 223   0.0000       1.457150        39.6511 
 224   0.0000       1.466906        39.9165 
 225   0.0000       1.476312        40.1725 
 226   0.0000       1.486055        40.4376 
 227   0.0000       1.494019        40.6543 
 228   0.0000       1.499931        40.8152 
 229   0.0000       1.501426        40.8559 
 230   0.0000       1.520935        41.3867 
 231   0.0000       1.529115        41.6093 
 232   0.0000       1.544076        42.0164 
 233   0.0000       1.556830        42.3635 
 234   0.0000       1.562388        42.5147 
 235   0.0000       1.583955        43.1016 
 236   0.0000       1.594960        43.4011 
 237   0.0000       1.605020        43.6748 
 238   0.0000       1.612736        43.8848 
 239   0.0000       1.614417        43.9305 
 240   0.0000       1.627398        44.2838 
 241   0.0000       1.652950        44.9791 
 242   0.0000       1.664892        45.3040 
 243   0.0000       1.669219        45.4218 
 244   0.0000       1.684125        45.8274 
 245   0.0000       1.703525        46.3553 
 246   0.0000       1.712921        46.6109 
 247   0.0000       1.721644        46.8483 
 248   0.0000       1.730762        47.0964 
 249   0.0000       1.736772        47.2600 
 250   0.0000       1.752689        47.6931 
 251   0.0000       1.768205        48.1153 
 252   0.0000       1.792084        48.7651 
 253   0.0000       1.798927        48.9513 
 254   0.0000       1.802889        49.0591 
 255   0.0000       1.833095        49.8810 
 256   0.0000       1.845452        50.2173 
 257   0.0000       1.849018        50.3143 
 258   0.0000       1.865999        50.7764 
 259   0.0000       1.878407        51.1141 
 260   0.0000       1.904097        51.8131 
 261   0.0000       1.911812        52.0231 
 262   0.0000       1.916137        52.1407 
 263   0.0000       1.929861        52.5142 
 264   0.0000       1.978012        53.8245 
 265   0.0000       2.014504        54.8174 
 266   0.0000       2.016063        54.8599 
 267   0.0000       2.050423        55.7948 
 268   0.0000       2.070765        56.3484 
 269   0.0000       2.073251        56.4160 
 270   0.0000       2.105192        57.2852 
 271   0.0000       2.120065        57.6899 
 272   0.0000       2.132623        58.0316 
 273   0.0000       2.146262        58.4028 
 274   0.0000       2.165785        58.9340 
 275   0.0000       2.172165        59.1076 
 276   0.0000       2.190587        59.6089 
 277   0.0000       2.204912        59.9987 
 278   0.0000       2.209434        60.1218 
 279   0.0000       2.215545        60.2880 
 280   0.0000       2.239156        60.9305 
 281   0.0000       2.240704        60.9727 
 282   0.0000       2.259566        61.4859 
 283   0.0000       2.270024        61.7705 
 284   0.0000       2.280598        62.0582 
 285   0.0000       2.295627        62.4672 
 286   0.0000       2.303418        62.6792 
 287   0.0000       2.306333        62.7585 
 288   0.0000       2.312584        62.9286 
 289   0.0000       2.327792        63.3424 
 290   0.0000       2.337869        63.6166 
 291   0.0000       2.348705        63.9115 
 292   0.0000       2.365572        64.3705 
 293   0.0000       2.385277        64.9067 
 294   0.0000       2.392438        65.1015 
 295   0.0000       2.416745        65.7630 
 296   0.0000       2.434401        66.2434 
 297   0.0000       2.441887        66.4471 
 298   0.0000       2.459719        66.9323 
 299   0.0000       2.472332        67.2756 
 300   0.0000       2.473270        67.3011 
 301   0.0000       2.479455        67.4694 
 302   0.0000       2.494130        67.8687 
 303   0.0000       2.510742        68.3208 
 304   0.0000       2.516360        68.4737 
 305   0.0000       2.532453        68.9115 
 306   0.0000       2.535269        68.9882 
 307   0.0000       2.550314        69.3976 
 308   0.0000       2.563793        69.7643 
 309   0.0000       2.573509        70.0287 
 310   0.0000       2.583191        70.2922 
 311   0.0000       2.605999        70.9128 
 312   0.0000       2.610644        71.0392 
 313   0.0000       2.620166        71.2983 
 314   0.0000       2.631937        71.6186 
 315   0.0000       2.643230        71.9259 
 316   0.0000       2.655389        72.2568 
 317   0.0000       2.664349        72.5006 
 318   0.0000       2.681131        72.9573 
 319   0.0000       2.685428        73.0742 
 320   0.0000       2.698282        73.4240 
 321   0.0000       2.710744        73.7631 
 322   0.0000       2.725178        74.1559 
 323   0.0000       2.740428        74.5708 
 324   0.0000       2.752243        74.8923 
 325   0.0000       2.759813        75.0983 
 326   0.0000       2.769970        75.3747 
 327   0.0000       2.775264        75.5188 
 328   0.0000       2.782139        75.7059 
 329   0.0000       2.797981        76.1369 
 330   0.0000       2.807859        76.4057 
 331   0.0000       2.822533        76.8050 
 332   0.0000       2.846096        77.4462 
 333   0.0000       2.852749        77.6272 
 334   0.0000       2.861824        77.8742 
 335   0.0000       2.869463        78.0820 
 336   0.0000       2.885004        78.5050 
 337   0.0000       2.912537        79.2541 
 338   0.0000       2.916947        79.3742 
 339   0.0000       2.939260        79.9813 
 340   0.0000       2.943735        80.1031 
 341   0.0000       2.962334        80.6092 
 342   0.0000       2.971183        80.8500 
 343   0.0000       2.987207        81.2860 
 344   0.0000       3.012932        81.9861 
 345   0.0000       3.049462        82.9801 
 346   0.0000       3.062168        83.3258 
 347   0.0000       3.101320        84.3912 
 348   0.0000       3.622524        98.5739 
 349   0.0000       3.652066        99.3778 
 350   0.0000       3.733086       101.5824 
 351   0.0000       3.757216       102.2391 
 352   0.0000       3.790859       103.1545 
 353   0.0000       3.809816       103.6704 
 354   0.0000       3.826002       104.1108 
 355   0.0000       3.843414       104.5846 
 356   0.0000       3.848214       104.7152 
 357   0.0000       3.857491       104.9677 
 358   0.0000       3.872910       105.3872 
 359   0.0000       3.893664       105.9520 
 360   0.0000       3.905332       106.2695 
 361   0.0000       3.908476       106.3550 
 362   0.0000       3.937437       107.1431 
 363   0.0000       3.961426       107.7959 
 364   0.0000       3.983065       108.3847 
 365   0.0000       3.991159       108.6049 
 366   0.0000       3.999331       108.8273 
 367   0.0000       4.011404       109.1559 
 368   0.0000       4.022575       109.4598 
 369   0.0000       4.046433       110.1090 
 370   0.0000       4.059378       110.4613 
 371   0.0000       4.063306       110.5682 
 372   0.0000       4.088852       111.2633 
 373   0.0000       4.099620       111.5563 
 374   0.0000       4.108487       111.7976 
 375   0.0000       4.127756       112.3219 
 376   0.0000       4.135326       112.5279 
 377   0.0000       4.141531       112.6968 
 378   0.0000       4.155799       113.0850 
 379   0.0000       4.171159       113.5030 
 380   0.0000       4.176925       113.6599 
 381   0.0000       4.186122       113.9102 
 382   0.0000       4.198044       114.2346 
 383   0.0000       4.218956       114.8036 
 384   0.0000       4.242740       115.4508 
 385   0.0000       4.250740       115.6685 
 386   0.0000       4.263985       116.0289 
 387   0.0000       4.273551       116.2892 
 388   0.0000       4.286384       116.6384 
 389   0.0000       4.301405       117.0472 
 390   0.0000       4.314561       117.4052 
 391   0.0000       4.327883       117.7677 
 392   0.0000       4.348956       118.3411 
 393   0.0000       4.358571       118.6028 
 394   0.0000       4.364895       118.7748 
 395   0.0000       4.382733       119.2602 
 396   0.0000       4.388123       119.4069 
 397   0.0000       4.389087       119.4331 
 398   0.0000       4.394144       119.5707 
 399   0.0000       4.421510       120.3154 
 400   0.0000       4.434652       120.6730 
 401   0.0000       4.442266       120.8802 
 402   0.0000       4.446988       121.0087 
 403   0.0000       4.470399       121.6457 
 404   0.0000       4.478309       121.8610 
 405   0.0000       4.488435       122.1365 
 406   0.0000       4.500227       122.4574 
 407   0.0000       4.518684       122.9597 
 408   0.0000       4.536340       123.4401 
 409   0.0000       4.563391       124.1762 
 410   0.0000       4.579940       124.6265 
 411   0.0000       4.590552       124.9153 
 412   0.0000       4.604548       125.2961 
 413   0.0000       4.645094       126.3994 
 414   0.0000       4.656044       126.6974 
 415   0.0000       4.672246       127.1383 
 416   0.0000       4.698417       127.8504 
 417   0.0000       4.705464       128.0422 
 418   0.0000       4.730384       128.7203 
 419   0.0000       4.748542       129.2144 
 420   0.0000       4.792523       130.4112 
 421   0.0000       4.798179       130.5651 
 422   0.0000       4.843668       131.8029 
 423   0.0000       4.855087       132.1136 
 424   0.0000       4.872574       132.5895 
 425   0.0000       4.888585       133.0252 
 426   0.0000       4.912965       133.6886 
 427   0.0000       4.929409       134.1360 
 428   0.0000       4.932799       134.2283 
 429   0.0000       4.956592       134.8757 
 430   0.0000       4.962178       135.0277 
 431   0.0000       4.982488       135.5804 
 432   0.0000       4.997883       135.9993 
 433   0.0000       5.009779       136.3230 
 434   0.0000       5.026764       136.7852 
 435   0.0000       5.038194       137.0962 
 436   0.0000       5.071906       138.0136 
 437   0.0000       5.078055       138.1809 
 438   0.0000       5.082760       138.3089 
 439   0.0000       5.099125       138.7543 
 440   0.0000       5.125895       139.4827 
 441   0.0000       5.129848       139.5903 
 442   0.0000       5.139042       139.8404 
 443   0.0000       5.162557       140.4803 
 444   0.0000       5.183130       141.0401 
 445   0.0000       5.201881       141.5504 
 446   0.0000       5.211473       141.8114 
 447   0.0000       5.223021       142.1256 
 448   0.0000       5.260993       143.1589 
 449   0.0000       5.281477       143.7163 
 450   0.0000       5.298964       144.1921 
 451   0.0000       5.327915       144.9799 
 452   0.0000       5.384060       146.5077 
 453   0.0000       5.433645       147.8570 
 454   0.0000       5.492691       149.4637 
 455   0.0000       5.510406       149.9458 
 456   0.0000       5.550757       151.0438 
 457   0.0000       5.571951       151.6205 
 458   0.0000       5.606055       152.5485 
 459   0.0000       5.621809       152.9772 
 460   0.0000       5.701367       155.1421 
 461   0.0000       5.744080       156.3044 
 462   0.0000       5.971010       162.4794 
 463   0.0000       6.023919       163.9192 
 464   0.0000       6.038907       164.3270 
 465   0.0000       6.085546       165.5961 
 466   0.0000       6.157778       167.5617 
 467   0.0000       6.208371       168.9384 
 468   0.0000       6.215995       169.1458 
 469   0.0000       6.218596       169.2166 
 470   0.0000       6.230536       169.5415 
 471   0.0000       6.275343       170.7608 
 472   0.0000       6.299111       171.4075 
 473   0.0000       6.350468       172.8050 
 474   0.0000       6.498090       176.8220 
 475   0.0000       6.508812       177.1138 
 476   0.0000       6.526034       177.5824 
 477   0.0000       6.531398       177.7284 
 478   0.0000       6.551688       178.2805 
 479   0.0000       6.571027       178.8067 
 480   0.0000       6.605148       179.7352 
 481   0.0000       6.625066       180.2772 
 482   0.0000       6.642384       180.7485 
 483   0.0000       6.670874       181.5237 
 484   0.0000       6.702144       182.3746 
 485   0.0000       6.727114       183.0541 
 486   0.0000       6.798735       185.0030 
 487   0.0000       6.807041       185.2290 
 488   0.0000       6.837473       186.0571 
 489   0.0000       6.856064       186.5630 
 490   0.0000       6.868902       186.9123 
 491   0.0000       6.883359       187.3057 
 492   0.0000       6.899110       187.7343 
 493   0.0000       6.912333       188.0942 
 494   0.0000       6.921947       188.3558 
 495   0.0000       6.939981       188.8465 
 496   0.0000       6.944344       188.9652 
 497   0.0000       6.961088       189.4208 
 498   0.0000       6.969483       189.6493 
 499   0.0000       6.972198       189.7232 
 500   0.0000       6.972994       189.7448 
 501   0.0000       6.988778       190.1743 
 502   0.0000       6.994231       190.3227 
 503   0.0000       7.005165       190.6202 
 504   0.0000       7.020409       191.0350 
 505   0.0000       7.041468       191.6081 
 506   0.0000       7.044940       191.7026 
 507   0.0000       7.054901       191.9736 
 508   0.0000       7.061896       192.1640 
 509   0.0000       7.071398       192.4225 
 510   0.0000       7.089660       192.9195 
 511   0.0000       7.101306       193.2363 
 512   0.0000       7.104880       193.3336 
 513   0.0000       7.109586       193.4617 
 514   0.0000       7.139409       194.2732 
 515   0.0000       7.164968       194.9687 
 516   0.0000       7.180927       195.4030 
 517   0.0000       7.189994       195.6497 
 518   0.0000       7.229907       196.7358 
 519   0.0000       7.278724       198.0641 
 520   0.0000       7.293122       198.4559 
 521   0.0000       7.314902       199.0486 
 522   0.0000       7.371449       200.5873 
 523   0.0000       7.465802       203.1548 
 524   0.0000       7.504240       204.2007 
 525   0.0000       7.528212       204.8531 
 526   0.0000       7.563705       205.8189 
 527   0.0000       7.604101       206.9181 
 528   0.0000       7.624589       207.4756 
 529   0.0000       7.644749       208.0242 
 530   0.0000       7.648760       208.1333 
 531   0.0000       7.675560       208.8626 
 532   0.0000       7.678785       208.9504 
 533   0.0000       7.721357       210.1088 
 534   0.0000       7.741507       210.6571 
 535   0.0000       7.777475       211.6359 
 536   0.0000       7.781003       211.7319 
 537   0.0000       7.791994       212.0309 
 538   0.0000       7.809971       212.5201 
 539   0.0000       7.884719       214.5541 
 540   0.0000       8.525429       231.9887 
 541   0.0000       8.535051       232.2506 
 542   0.0000       8.576352       233.3744 
 543   0.0000       8.592058       233.8018 
 544   0.0000       8.626938       234.7509 
 545   0.0000       8.668041       235.8694 
 546   0.0000      15.975297       434.7099 
 547   0.0000      16.125336       438.7927 
 548   0.0000      16.440463       447.3677 
 549   0.0000      16.879899       459.3254 
 550   0.0000      17.017474       463.0690 
 551   0.0000      17.422604       474.0932 

                    ********************************
                    * MULLIKEN POPULATION ANALYSIS *
                    ********************************

-----------------------
MULLIKEN ATOMIC CHARGES
-----------------------
   0 O :   -0.502918
   1 H :    0.344224
   2 H :    0.076252
   3 O :   -0.482326
   4 H :    0.273831
   5 H :    0.286053
   6 O :   -0.450262
   7 H :    0.350237
   8 H :    0.059268
   9 O :   -0.587013
  10 H :    0.331174
  11 H :    0.316907
  12 O :   -0.402083
  13 H :    0.303095
  14 H :    0.113509
  15 O :   -0.439319
  16 H :    0.282629
  17 H :    0.126741
Sum of atomic charges:    0.0000000

--------------------------------
MULLIKEN REDUCED ORBITAL CHARGES
--------------------------------
  0 O s       :     4.071193  s :     4.071193
      pz      :     1.768539  p :     4.429873
      px      :     1.452260
      py      :     1.209074
      dz2     :    -0.000907  d :     0.002156
      dxz     :     0.001332
      dyz     :    -0.001872
      dx2y2   :    -0.000917
      dxy     :     0.004520
      f0      :     0.000049  f :    -0.000304
      f+1     :     0.000075
      f-1     :     0.000041
      f+2     :    -0.000046
      f-2     :     0.000029
      f+3     :    -0.000049
      f-3     :    -0.000402
  1 H s       :     0.555282  s :     0.555282
      pz      :     0.061912  p :     0.059232
      px      :    -0.014952
      py      :     0.012272
      dz2     :     0.000267  d :     0.041262
      dxz     :     0.013829
      dyz     :     0.012147
      dx2y2   :     0.016699
      dxy     :    -0.001680
  2 H s       :     0.797455  s :     0.797455
      pz      :     0.068834  p :     0.110153
      px      :     0.033068
      py      :     0.008252
      dz2     :     0.002488  d :     0.016139
      dxz     :     0.000425
      dyz     :     0.007988
      dx2y2   :     0.000694
      dxy     :     0.004544
  3 O s       :     4.040985  s :     4.040985
      pz      :     1.711339  p :     4.433805
      px      :     1.308957
      py      :     1.413509
      dz2     :     0.001685  d :     0.007876
      dxz     :     0.003523
      dyz     :     0.000560
      dx2y2   :     0.000794
      dxy     :     0.001314
      f0      :     0.000002  f :    -0.000341
      f+1     :     0.000044
      f-1     :     0.000021
      f+2     :    -0.000013
      f-2     :    -0.000043
      f+3     :    -0.000384
      f-3     :     0.000032
  4 H s       :     0.565664  s :     0.565664
      pz      :     0.051131  p :     0.139132
      px      :     0.050076
      py      :     0.037925
      dz2     :    -0.000963  d :     0.021373
      dxz     :     0.006536
      dyz     :     0.007881
      dx2y2   :     0.009741
      dxy     :    -0.001822
  5 H s       :     0.585683  s :     0.585683
      pz      :     0.026786  p :     0.102790
      px      :     0.029714
      py      :     0.046290
      dz2     :     0.010274  d :     0.025474
      dxz     :     0.006306
      dyz     :     0.000836
      dx2y2   :    -0.000797
      dxy     :     0.008855
  6 O s       :     4.032097  s :     4.032097
      pz      :     1.565169  p :     4.414778
      px      :     1.684797
      py      :     1.164812
      dz2     :    -0.000459  d :     0.003741
      dxz     :     0.005815
      dyz     :     0.004482
      dx2y2   :    -0.007635
      dxy     :     0.001539
      f0      :     0.000057  f :    -0.000355
      f+1     :     0.000050
      f-1     :    -0.000277
      f+2     :     0.000011
      f-2     :     0.000025
      f+3     :     0.000066
      f-3     :    -0.000288
  7 H s       :     0.554677  s :     0.554677
      pz      :    -0.003299  p :     0.047837
      px      :     0.025672
      py      :     0.025463
      dz2     :     0.014970  d :     0.047249
      dxz     :    -0.003242
      dyz     :     0.007090
      dx2y2   :     0.017388
      dxy     :     0.011043
  8 H s       :     0.807759  s :     0.807759
      pz      :     0.048777  p :     0.114613
      px      :     0.060040
      py      :     0.005797
      dz2     :    -0.000235  d :     0.018360
      dxz     :    -0.000033
      dyz     :     0.008173
      dx2y2   :    -0.000714
      dxy     :     0.011169
  9 O s       :     4.121902  s :     4.121902
      pz      :     1.630209  p :     4.455331
      px      :     1.612348
      py      :     1.212774
      dz2     :     0.002275  d :     0.009877
      dxz     :     0.003201
      dyz     :     0.002849
      dx2y2   :    -0.000835
      dxy     :     0.002387
      f0      :    -0.000013  f :    -0.000097
      f+1     :     0.000073
      f-1     :    -0.000012
      f+2     :    -0.000051
      f-2     :     0.000133
      f+3     :    -0.000209
      f-3     :    -0.000019
 10 H s       :     0.560025  s :     0.560025
      pz      :     0.004787  p :     0.092969
      px      :     0.035288
      py      :     0.052895
      dz2     :     0.010201  d :     0.015831
      dxz     :    -0.002083
      dyz     :    -0.000151
      dx2y2   :     0.008104
      dxy     :    -0.000239
 11 H s       :     0.560201  s :     0.560201
      pz      :     0.021487  p :     0.103167
      px      :     0.047964
      py      :     0.033716
      dz2     :     0.002482  d :     0.019725
[...]
      1      -0.003424  -0.029017  -0.000323  -0.009962   0.000468   0.002281
      2       0.000230  -0.003368  -0.000706  -0.001043   0.000295  -0.000161
      3       0.080212   0.769806   0.013415   0.287625  -0.020582  -0.037567
      4       0.045379   0.504325   0.008881   0.195990  -0.012422  -0.029877
      5       0.001585   0.059580   0.003226   0.026466  -0.002611  -0.005523
      6       0.001939   0.005451   0.001620   0.004030   0.001620   0.005491
      7      -0.007410  -0.076582  -0.003207  -0.037678   0.000772  -0.005789
      8      -0.001204  -0.016690  -0.001471  -0.008038  -0.000012  -0.004998
      9       0.003910  -0.003585   0.016528  -0.002045  -0.050610   0.006830
     10       0.002533   0.002040   0.000517   0.000232  -0.010953  -0.011870
     11      -0.005768   0.000522  -0.006895   0.001153   0.023853   0.001795
     12       0.025266   0.019513   0.001943   0.001801  -0.070762  -0.108563
     13      -0.052284  -0.037016   0.019500  -0.003792   0.073646   0.193131
     14       0.000670   0.001111  -0.003257  -0.000852   0.002267  -0.022688
     15      -0.104731   0.029597  -0.253432   0.030687   0.865352   0.005228
     16      -0.014262   0.006723  -0.027512   0.003226   0.103195  -0.006439
     17       0.038441  -0.012731   0.102679  -0.014390  -0.368046  -0.002305
     18       0.032982  -0.005180  -0.002462   0.003658   0.002880   0.000434
     19       0.021538  -0.002939  -0.001402   0.002797   0.001465  -0.000111
     20       0.048494  -0.005533  -0.004160   0.003907   0.004286   0.000884
     21      -0.514698   0.069450   0.045127  -0.050441  -0.048645  -0.008095
     22      -0.346860   0.054483   0.032740  -0.042586  -0.041689  -0.007683
     23      -0.748133   0.097603   0.065387  -0.075478  -0.070174  -0.015342
     24       0.000286  -0.004361   0.000678   0.008490   0.000460  -0.000010
     25       0.058562  -0.001870  -0.006472  -0.007808   0.014382   0.005638
     26       0.008177  -0.002491  -0.001561   0.002019   0.000521   0.000283
     27      -0.000290  -0.001504  -0.003625  -0.000992  -0.000624  -0.035291
     28      -0.002393   0.005264   0.000332  -0.002486  -0.000427   0.023473
     29       0.000515   0.002367   0.004754  -0.000115   0.000352   0.033785
     30      -0.005514   0.037282   0.053072  -0.003235   0.004040   0.470505
     31      -0.001417  -0.046581  -0.067922   0.002160  -0.001513  -0.612310
     32      -0.000878  -0.037890  -0.052120   0.004236  -0.004220  -0.516867
     33       0.012453  -0.015670   0.027120   0.017869   0.006030   0.087709
     34       0.032440  -0.029802   0.058659   0.034545   0.008153   0.243253
     35       0.002560   0.003221  -0.001921   0.000127  -0.002832  -0.009492
     36       0.006396   0.013950  -0.002440  -0.035567   0.000894  -0.000136
     37      -0.006400  -0.014798   0.002911   0.041812  -0.000894   0.000394
     38      -0.001502  -0.004916   0.000585   0.011916  -0.000159   0.000130
     39      -0.082908  -0.215607   0.040478   0.610264  -0.014829   0.003932
     40       0.101869   0.248898  -0.046530  -0.679257   0.014273  -0.004218
     41       0.021584   0.051912  -0.007139  -0.126632   0.001569  -0.001737
     42       0.006832   0.031889  -0.004049  -0.062286   0.001051  -0.000052
     43      -0.001690   0.003281   0.001186   0.020899  -0.000689  -0.000222
     44       0.004061   0.031186  -0.002009  -0.058500   0.000792  -0.000537
     45      -0.003189   0.000135  -0.034582   0.001844  -0.010118   0.003247
     46       0.001456  -0.000179   0.018483  -0.000922   0.005147  -0.002676
     47      -0.002478  -0.000121  -0.042944   0.002236  -0.012808   0.005011
     48       0.036982  -0.000849   0.586291  -0.032103   0.183089  -0.076832
     49      -0.020288   0.001851  -0.239336   0.011238  -0.066717   0.026109
     50       0.044950   0.000758   0.695910  -0.036238   0.205451  -0.081612
     51      -0.005681   0.000399  -0.075989   0.004630  -0.013880   0.019409
     52      -0.005281   0.001284  -0.055648   0.003564  -0.008952   0.016010
     53       0.001387  -0.000218  -0.014190   0.000732  -0.013791   0.003023
                 48         49         50         51         52         53    
      0      -0.002276  -0.001896  -0.002194  -0.001719   0.011571   0.000570
      1      -0.002948  -0.001956   0.008225   0.006840  -0.058855  -0.002773
      2      -0.001089  -0.000066   0.001815   0.001547  -0.012956  -0.000643
      3       0.044349   0.033765  -0.002784  -0.003218   0.069973   0.003313
      4       0.033360   0.025903   0.003541   0.002488   0.011144   0.000618
      5       0.005495   0.002986   0.003026   0.001636  -0.000954   0.000170
      6      -0.008524  -0.005573   0.037388   0.030795  -0.256389  -0.011971
      7       0.017987   0.009226  -0.134144  -0.111284   0.919515   0.042922
      8       0.002444   0.003184  -0.030283  -0.025017   0.206350   0.009659
      9       0.034118   0.005741   0.000108  -0.000022  -0.000906   0.000782
     10      -0.049319  -0.009217   0.000238  -0.000930   0.001087  -0.000020
     11       0.004519   0.000846  -0.000076   0.000052  -0.000064  -0.000327
     12      -0.464854  -0.084699   0.001797  -0.007256   0.011122  -0.002122
     13       0.821250   0.150039  -0.002447   0.011165  -0.018934   0.003066
     14      -0.103029  -0.020538   0.000659  -0.001983   0.001779  -0.000002
     15      -0.064747  -0.007229  -0.003686   0.006248   0.003517  -0.009724
     16      -0.036050  -0.004940  -0.000180   0.000388   0.001168  -0.003547
     17       0.037927   0.004044   0.001461  -0.002200  -0.001607   0.004087
     18       0.001422  -0.000448   0.000901  -0.002552  -0.000257   0.000045
     19       0.000486  -0.002338  -0.029103   0.054613   0.002467  -0.000803
     20       0.001998  -0.001762  -0.000507   0.000379  -0.000010  -0.000024
     21      -0.024512   0.017356   0.015201  -0.021247  -0.000233   0.000249
     22      -0.022421   0.015488  -0.002763   0.013564   0.001242  -0.000596
     23      -0.033342   0.026199   0.022164  -0.029486  -0.000500   0.000414
     24      -0.000638  -0.001748  -0.033352   0.061206   0.002836  -0.000843
     25       0.008750   0.025652   0.465000  -0.877210  -0.039342   0.013629
     26       0.000960  -0.003688  -0.015226   0.027068   0.001216  -0.000329
     27       0.011101  -0.014715   0.000069  -0.000468  -0.000629   0.000917
     28       0.006195  -0.063339  -0.000010  -0.001766   0.000762   0.000406
     29      -0.007023  -0.003609  -0.000083  -0.000000   0.000642  -0.000333
     30      -0.082000  -0.165842  -0.000904  -0.004109   0.010333  -0.005914
     31       0.114200   0.162803   0.001857   0.004015  -0.012555   0.008068
     32       0.090920   0.169528   0.000966   0.003867  -0.010046   0.006042
     33      -0.095611   0.401833   0.000142   0.011253  -0.000296  -0.005538
     34      -0.210612   0.837100  -0.001360   0.024468   0.000038  -0.014066
     35       0.021032  -0.109313  -0.000198  -0.003949   0.000217   0.001661
     36       0.000272   0.001305   0.035156   0.019071   0.007132   0.000928
     37      -0.000606  -0.002375  -0.005015  -0.003476  -0.000504  -0.000091
     38       0.000008  -0.001198   0.041263   0.021289   0.008622   0.001079
     39      -0.006185  -0.035889  -0.028894  -0.027355   0.000056  -0.000463
     40       0.006778   0.038178   0.049103   0.040392   0.004975   0.000844
     41       0.000939   0.006667   0.034079   0.018656   0.005953   0.000939
     42      -0.000690   0.010670  -0.525497  -0.272777  -0.109575  -0.013937
     43       0.000307  -0.000659   0.028746   0.014551   0.006455   0.000770
     44      -0.001530   0.012568  -0.689684  -0.358122  -0.142764  -0.018046
     45       0.000407   0.000814   0.000943  -0.000412   0.002220  -0.047128
     46       0.000283  -0.001151   0.000821  -0.000318   0.001982  -0.040628
     47       0.000666   0.001563   0.000110  -0.000026   0.000292  -0.007136
     48      -0.003680  -0.026038  -0.000473   0.000605  -0.000460   0.032416
     49       0.002475   0.008213   0.000755  -0.000021   0.002000  -0.045823
     50      -0.007881  -0.026152  -0.000936   0.000319  -0.001990   0.062550
     51      -0.007838   0.009393  -0.014198   0.005280  -0.034529   0.711101
     52      -0.007339   0.008730  -0.013807   0.005098  -0.033496   0.691033
     53       0.000670   0.001584  -0.000951   0.000315  -0.002507   0.050046


-----------
IR SPECTRUM  
-----------

 Mode    freq (cm**-1)   T**2         TX         TY         TZ
-------------------------------------------------------------------
   6:        52.36    1.608294  (  1.236082   0.087187  -0.269804)
   7:        61.21    3.971229  ( -1.669751   0.890966   0.623971)
   8:        82.92    0.505901  (  0.319863   0.306548  -0.556433)
   9:       104.72    0.388285  ( -0.008533   0.574005   0.242345)
  10:       112.61    2.431051  ( -1.136303   0.057826   1.066078)
  11:       135.90    1.928023  (  1.228200   0.377808  -0.526125)
  12:       187.03   10.317183  (  3.015852  -0.597481   0.929967)
  13:       224.74   13.416788  ( -2.774935  -1.960874  -1.368026)
  14:       242.62   32.741196  (  3.292316  -1.963677  -4.248037)
  15:       245.17    8.238787  (  2.041448   1.994555   0.305003)
  16:       251.70   32.928553  (  1.491583   1.605639  -5.303363)
  17:       256.68   83.938673  (  7.987272  -4.437608  -0.670662)
  18:       266.79   28.304604  (  5.109685   1.228502   0.828555)
  19:       293.61   84.529114  (  8.420809   3.384684  -1.470713)
  20:       310.73   30.545033  (  3.337018   2.793289   3.406886)
  21:       329.28   50.639851  (  2.615662  -1.452175  -6.456729)
  22:       418.00   50.091314  ( -4.328433  -0.570827  -5.570470)
  23:       440.14   81.765317  ( -7.792365   3.977263   2.285987)
  24:       467.97   23.052987  ( -4.541687  -1.211965  -0.978369)
  25:       489.04   81.000318  (  2.053827  -1.113011   8.691566)
  26:       512.62   32.567539  (  0.896636  -4.554158   3.320125)
  27:       564.81  224.803362  (  6.345765  12.401504   5.544125)
  28:       612.52   77.206940  (  8.519959  -2.063937  -0.597833)
  29:       670.36  167.109100  (  5.310410  -5.265780  10.544202)
  30:       727.69    7.702396  ( -1.682767   1.418257  -1.690928)
  31:       785.42  199.473287  (  6.434992   4.646014  11.682411)
  32:       858.72   83.007976  (  2.345872  -4.120690   7.779767)
  33:       861.70  190.036300  ( 11.018169   1.323416  -8.178313)
  34:       925.51   40.511596  ( -4.939033   0.288843   4.004262)
  35:      1072.72   60.071888  ( -4.096864  -0.605297   6.551428)
  36:      1659.62   80.459766  ( -3.640376  -0.606306   8.175562)
  37:      1669.85   75.137909  (  4.370267   7.117305  -2.320054)
  38:      1682.65   64.306750  (  5.575351  -5.601979   1.356479)
  39:      1694.14   50.595957  ( -1.672550  -6.772345   1.390638)
  40:      1704.18   46.724849  ( -5.821153  -0.522356   3.544880)
  41:      1720.21   35.155265  (  2.803008   1.378784  -5.039580)
  42:      2997.44  903.680075  (-19.563373 -13.734737 -18.229413)
  43:      3251.97  893.373885  ( 16.922586  24.001064   5.563174)
  44:      3314.73  697.583246  ( 18.804171  -3.242387  18.261252)
  45:      3370.00  738.205536  ( 25.441630  -8.927670  -3.350480)
  46:      3432.33  646.243967  ( 23.755291   1.557748  -8.916475)
  47:      3577.98  238.450624  (  5.726406  -4.674135 -13.557705)
  48:      3631.85  327.199070  (-14.660969  10.581551  -0.534631)
  49:      3664.99  342.643040  (  0.651846  18.496766  -0.296294)
  50:      3828.08   54.497760  ( -5.441099   4.226236  -2.651627)
  51:      3831.14   56.332745  ( -3.742621  -5.643455  -3.236812)
  52:      3835.35   47.794799  ( -0.002760   6.891206   0.553242)
  53:      3836.02   53.083147  (  6.044674   3.224899   2.478928)

The first frequency considered to be a vibration is 6
The total number of vibrations considered is 48


--------------------------
THERMOCHEMISTRY AT 298.15K
--------------------------

Temperature         ... 298.15 K
Pressure            ... 1.00 atm
Total Mass          ... 108.09 AMU

Throughout the following assumptions are being made:
  (1) The electronic state is orbitally nondegenerate
  (2) There are no thermally accessible electronically excited states
  (3) Hindered rotations indicated by low frequency modes are not
      treated as such but are treated as vibrations and this may
      cause some error
  (4) All equations used are the standard statistical mechanics
      equations for an ideal gas
  (5) All vibrations are strictly harmonic

freq.      52.36  E(vib)   ...       0.52 
freq.      61.21  E(vib)   ...       0.51 
freq.      82.92  E(vib)   ...       0.48 
freq.     104.72  E(vib)   ...       0.46 
freq.     112.61  E(vib)   ...       0.45 
freq.     135.90  E(vib)   ...       0.42 
freq.     187.03  E(vib)   ...       0.36 
freq.     224.74  E(vib)   ...       0.33 
freq.     242.62  E(vib)   ...       0.31 
freq.     245.17  E(vib)   ...       0.31 
freq.     251.70  E(vib)   ...       0.30 
freq.     256.68  E(vib)   ...       0.30 
freq.     266.79  E(vib)   ...       0.29 
freq.     293.61  E(vib)   ...       0.27 
freq.     310.73  E(vib)   ...       0.26 
freq.     329.28  E(vib)   ...       0.24 
freq.     418.00  E(vib)   ...       0.18 
freq.     440.14  E(vib)   ...       0.17 
freq.     467.97  E(vib)   ...       0.16 
freq.     489.04  E(vib)   ...       0.15 
freq.     512.62  E(vib)   ...       0.13 
freq.     564.81  E(vib)   ...       0.11 
freq.     612.52  E(vib)   ...       0.10 
freq.     670.36  E(vib)   ...       0.08 
freq.     727.69  E(vib)   ...       0.06 
freq.     785.42  E(vib)   ...       0.05 
freq.     858.72  E(vib)   ...       0.04 
freq.     861.70  E(vib)   ...       0.04 
freq.     925.51  E(vib)   ...       0.03 
freq.    1072.72  E(vib)   ...       0.02 
freq.    1659.62  E(vib)   ...       0.00 
freq.    1669.85  E(vib)   ...       0.00 
freq.    1682.65  E(vib)   ...       0.00 
freq.    1694.14  E(vib)   ...       0.00 
freq.    1704.18  E(vib)   ...       0.00 
freq.    1720.21  E(vib)   ...       0.00 
freq.    2997.44  E(vib)   ...       0.00 
freq.    3251.97  E(vib)   ...       0.00 
freq.    3314.73  E(vib)   ...       0.00 
freq.    3370.00  E(vib)   ...       0.00 
freq.    3432.33  E(vib)   ...       0.00 
freq.    3577.98  E(vib)   ...       0.00 
freq.    3631.85  E(vib)   ...       0.00 
freq.    3664.99  E(vib)   ...       0.00 
freq.    3828.08  E(vib)   ...       0.00 
freq.    3831.14  E(vib)   ...       0.00 
freq.    3835.35  E(vib)   ...       0.00 
freq.    3836.02  E(vib)   ...       0.00 

------------
INNER ENERGY
------------

The inner energy is: U= E(el) + E(ZPE) + E(vib) + E(rot) + E(trans)
    E(el)   - is the total energy from the electronic structure calculation
              = E(kin-el) + E(nuc-el) + E(el-el) + E(nuc-nuc)
    E(ZPE)  - the the zero temperature vibrational energy from the frequency calculation
    E(vib)  - the the finite temperature correction to E(ZPE) due to population
              of excited vibrational states
    E(rot)  - is the rotational thermal energy
    E(trans)- is the translational thermal energy

Summary of contributions to the inner energy U:
Electronic energy                ...   -458.82751363 Eh
Zero point energy                ...      0.14869101 Eh      93.30 kcal/mol
Thermal vibrational correction   ...      0.01137334 Eh       7.14 kcal/mol
Thermal rotational correction    ...      0.00141627 Eh       0.89 kcal/mol
Thermal translational correction ...      0.00141627 Eh       0.89 kcal/mol
-----------------------------------------------------------------------
Total thermal energy                   -458.66461673 Eh


Summary of corrections to the electronic energy:
(perhaps to be used in another calculation)
Total thermal correction                  0.01420589 Eh       8.91 kcal/mol
Non-thermal (ZPE) correction              0.14869101 Eh      93.30 kcal/mol
-----------------------------------------------------------------------
Total correction                          0.16289690 Eh     102.22 kcal/mol


--------
ENTHALPY
--------

The enthalpy is H = U + kB*T
                kB is Boltzmann's constant
Total free energy                 ...   -458.66461673 Eh 
Thermal Enthalpy correction       ...      0.00094421 Eh       0.59 kcal/mol
-----------------------------------------------------------------------
Total Enthalpy                    ...   -458.66367252 Eh


Note: Only C1 symmetry has been detected, increase convergence thresholds 
      if your molecule has a higher symmetry. Symmetry factor of 1.0 is   
      used for the rotational entropy correction. 
 

Note: Rotational entropy computed according to Herzberg 
Infrared and Raman Spectra, Chapter V,1, Van Nostrand Reinhold, 1945 
Point Group:  C1, Symmetry Number:   1  
Rotational constants in cm-1:     0.077405     0.039022     0.037336 

Vibrational entropy computed according to the QRRHO of S. Grimme
Chem.Eur.J. 2012 18 9955


-------
ENTROPY
-------

The entropy contributions are T*S = T*(S(el)+S(vib)+S(rot)+S(trans))
     S(el)   - electronic entropy
     S(vib)  - vibrational entropy
     S(rot)  - rotational entropy
     S(trans)- translational entropy
The entropies will be listed as mutliplied by the temperature to get
units of energy

Electronic entropy                ...      0.00000000 Eh      0.00 kcal/mol
Vibrational entropy               ...      0.02008809 Eh     12.61 kcal/mol
Rotational entropy                ...      0.01380217 Eh      8.66 kcal/mol
Translational entropy             ...      0.01898142 Eh     11.91 kcal/mol
-----------------------------------------------------------------------
Final entropy term                ...      0.05287168 Eh     33.18 kcal/mol

In case the symmetry of your molecule has not been determined correctly
or in case you have a reason to use a different symmetry number we print 
out the resulting rotational entropy values for sn=1,12 :
 --------------------------------------------------------
|  sn= 1 | S(rot)=       0.01380217 Eh      8.66 kcal/mol|
|  sn= 2 | S(rot)=       0.01314771 Eh      8.25 kcal/mol|
|  sn= 3 | S(rot)=       0.01276488 Eh      8.01 kcal/mol|
|  sn= 4 | S(rot)=       0.01249326 Eh      7.84 kcal/mol|
|  sn= 5 | S(rot)=       0.01228257 Eh      7.71 kcal/mol|
|  sn= 6 | S(rot)=       0.01211043 Eh      7.60 kcal/mol|
|  sn= 7 | S(rot)=       0.01196488 Eh      7.51 kcal/mol|
|  sn= 8 | S(rot)=       0.01183880 Eh      7.43 kcal/mol|
|  sn= 9 | S(rot)=       0.01172759 Eh      7.36 kcal/mol|
|  sn=10 | S(rot)=       0.01162811 Eh      7.30 kcal/mol|
|  sn=11 | S(rot)=       0.01153812 Eh      7.24 kcal/mol|
|  sn=12 | S(rot)=       0.01145597 Eh      7.19 kcal/mol|
 --------------------------------------------------------


-------------------
GIBBS FREE ENERGY
-------------------

The Gibbs free energy is G = H - T*S

Total enthalpy                    ...   -458.66367252 Eh 
Total entropy correction          ...     -0.05287168 Eh    -33.18 kcal/mol
-----------------------------------------------------------------------
Final Gibbs free energy         ...   -458.71654421 Eh

For completeness - the Gibbs free energy minus the electronic energy
G-E(el)                           ...      0.11096943 Eh     69.63 kcal/mol


Total Time for Numerical Frequencies  :      9416.394 sec

Timings for individual modules:

Sum of individual times         ...     2714.857 sec (=  45.248 min)
GTO integral calculation        ...       31.139 sec (=   0.519 min)   1.1 %
SCF iterations                  ...     1589.286 sec (=  26.488 min)  58.5 %
SCF Gradient evaluation         ...     1087.049 sec (=  18.117 min)  40.0 %
Geometry relaxation             ...        7.382 sec (=   0.123 min)   0.3 %
                             ****ORCA TERMINATED NORMALLY****
TOTAL RUN TIME: 0 days 3 hours 21 minutes 11 seconds 722 msec
