
                                 *****************
                                 * O   R   C   A *
                                 *****************

           --- An Ab Initio, DFT and Semiempirical electronic structure package ---

                  #######################################################
                  #                        -***-                        #
                  #          Department of theory and spectroscopy      #
                  #               Directorship: Frank Neese             #
                  #        Max Planck Institute fuer Kohlenforschung    #
                  #                Kaiser Wilhelm Platz 1               #
                  #                 D-45470 Muelheim/Ruhr               #
                  #                      Germany                        #
                  #                                                     #
                  #                  All rights reserved                #
                  #                        -***-                        #
                  #######################################################


                         Program Version 4.2.0 -  RELEASE  -


 With contributions from (in alphabetic order):
   Daniel Aravena         : Magnetic Suceptibility
   Michael Atanasov       : Ab Initio Ligand Field Theory (pilot matlab implementation)
   Alexander A. Auer      : GIAO ZORA, VPT2
   Ute Becker             : Parallelization
   Giovanni Bistoni       : ED, misc. LED, open-shell LED, HFLED
   Martin Brehm           : Molecular dynamics
   Dmytro Bykov           : SCF Hessian
   Vijay G. Chilkuri      : MRCI spin determinant printing, contributions to CSF-ICE
   Dipayan Datta          : RHF DLPNO-CCSD density
   Achintya Kumar Dutta   : EOM-CC, STEOM-CC
   Dmitry Ganyushin       : Spin-Orbit,Spin-Spin,Magnetic field MRCI
   Miquel Garcia          : C-PCM Hessian, Gaussian charge scheme
   Yang Guo               : DLPNO-NEVPT2, CIM, IAO-localization
   Andreas Hansen         : Spin unrestricted coupled pair/coupled cluster methods
   Benjamin Helmich-Paris : CASSCF linear response (MC-RPA)
   Lee Huntington         : MR-EOM, pCC
   Robert Izsak           : Overlap fitted RIJCOSX, COSX-SCS-MP3, EOM
   Christian Kollmar      : KDIIS, OOCD, Brueckner-CCSD(T), CCSD density
   Simone Kossmann        : Meta GGA functionals, TD-DFT gradient, OOMP2, MP2 Hessian
   Martin Krupicka        : AUTO-CI
   Lucas Lang             : DCDCAS
   Dagmar Lenk            : GEPOL surface, SMD
   Dimitrios Liakos       : Extrapolation schemes; Compound Job, initial MDCI parallelization
   Dimitrios Manganas     : Further ROCIS development; embedding schemes
   Dimitrios Pantazis     : SARC Basis sets
   Taras Petrenko         : DFT Hessian,TD-DFT gradient, ASA, ECA, R-Raman, ABS, FL, XAS/XES, NRVS
   Peter Pinski           : DLPNO-MP2, DLPNO-MP2 Gradient
   Christoph Reimann      : Effective Core Potentials
   Marius Retegan         : Local ZFS, SOC
   Christoph Riplinger    : Optimizer, TS searches, QM/MM, DLPNO-CCSD(T), (RO)-DLPNO pert. Triples
   Tobias Risthaus        : Range-separated hybrids, TD-DFT gradient, RPA, STAB
   Michael Roemelt        : Original ROCIS implementation
   Masaaki Saitow         : Open-shell DLPNO-CCSD energy and density
   Barbara Sandhoefer     : DKH picture change effects
   Avijit Sen             : IP-ROCIS
   Kantharuban Sivalingam : CASSCF convergence, NEVPT2, FIC-MRCI
   Bernardo de Souza      : ESD, SOC TD-DFT
   Georgi Stoychev        : AutoAux, RI-MP2 NMR
   Willem Van den Heuvel  : Paramagnetic NMR
   Boris Wezisla          : Elementary symmetry handling
   Frank Wennmohs         : Technical directorship


 We gratefully acknowledge several colleagues who have allowed us to
 interface, adapt or use parts of their codes:
   Stefan Grimme, W. Hujo, H. Kruse,             : VdW corrections, initial TS optimization,
                  C. Bannwarth                     DFT functionals, gCP, sTDA/sTD-DF
   Ed Valeev, F. Pavosevic, A. Kumar             : LibInt (2-el integral package), F12 methods
   Garnet Chan, S. Sharma, J. Yang, R. Olivares  : DMRG
   Ulf Ekstrom                                   : XCFun DFT Library
   Mihaly Kallay                                 : mrcc  (arbitrary order and MRCC methods)
   Andreas Klamt, Michael Diedenhofen            : otool_cosmo (COSMO solvation model)
   Jiri Pittner, Ondrej Demel                    : Mk-CCSD
   Frank Weinhold                                : gennbo (NPA and NBO analysis)
   Christopher J. Cramer and Donald G. Truhlar   : smd solvation model
   Lars Goerigk                                  : TD-DFT with DH, B97 family of functionals
   V. Asgeirsson, H. Jonsson                     : NEB implementation
   FAccTs GmbH                                   : IRC, NEB, NEB-TS, Multilevel, MM, QM/MM, CI optimization
   S Lehtola, MJT Oliveira, MAL Marques          : LibXC Library


 Your calculation uses the libint2 library for the computation of 2-el integrals
 For citations please refer to: http://libint.valeyev.net

 Your ORCA version has been built with support for libXC version: 4.2.3
 For citations please refer to: https://tddft.org/programs/libxc/

 This ORCA versions uses:
   CBLAS   interface :  Fast vector & matrix operations
   LAPACKE interface :  Fast linear algebra routines
   SCALAPACK package :  Parallel linear algebra routines


Your calculation utilizes the atom-pairwise dispersion correction
with the Becke-Johnson damping scheme (D3BJ)
Cite in your paper:
S.Grimme, S.Ehrlich, L.Goerigk, J Comput Chem, (2011), 32, 1456–1465 
S.Grimme, J.Antony, S.Ehrlich and H.Krieg, J.Chem.Phys., 132, (2010), 154104 
   

----- Orbital basis set information -----
Your calculation utilizes the basis: aug-cc-pV(T+d)Z 
             Al - Ar: T.H. Dunning, Jr., K. A. Peterson and A. K. Wilson, J. Chem. Phys.
                      114, 9244 (2001)

----- AuxJK basis set information -----
Your calculation utilizes the auxiliary basis: def2/JK
   H-Ba, Hf-Rn: F. Weigend, J. Comput. Chem. 29, 167 (2008).

================================================================================
                                        WARNINGS
                       Please study these warnings very carefully!
================================================================================


WARNING: Geometry Optimization
  ===> : Switching off AutoStart
         For restart on a previous wavefunction, please use MOREAD

INFO   : the flag for use of LIBINT has been found!

================================================================================
                                       INPUT FILE
================================================================================
NAME = 09_H2O_6_prism.in
|  1> #
|  2> # 09_H2O_6_prism tpssh/aug-cc-pvt(+d)z
|  3> #
|  4> ! tpssh d3bj aug-cc-pvt(+d)z def2/jk grid4 nofinalgrid opt xyzfile numfreq
|  5> 
|  6> *xyz 0 1
|  7> O	-1.511782	-0.232325	1.434522
|  8> H	-0.6139	-0.631798	1.542476
|  9> H	-2.015087	-0.484249	2.21021
| 10> O	-1.744551	-0.350365	-1.322141
| 11> H	-1.89002	-0.475498	-0.368433
| 12> H	-2.508917	-0.726304	-1.761973
| 13> O	-0.568902	2.010658	-0.079448
| 14> H	-0.9578	1.52123	0.658817
| 15> H	-0.991476	1.598457	-0.84212
| 16> O	0.972064	-1.194842	1.413465
| 17> H	0.986177	-1.536208	0.500658
| 18> H	1.544338	-0.420911	1.334663
| 19> O	0.983916	-1.359847	-1.372465
| 20> H	0.077993	-1.073694	-1.552782
| 21> H	1.480193	-0.535792	-1.283351
| 22> O	2.003223	1.063257	-0.092296
| 23> H	1.144078	1.530799	-0.098089
| 24> H	2.67269	1.741694	-0.193152
| 25> *
| 26> 
| 27> %maxcore 5000
| 28> 
| 29> %pal
| 30> nprocs 24
| 31> end
| 32> 
| 33> 
| 34>                          ****END OF INPUT****
================================================================================

                       *****************************
                       * Geometry Optimization Run *
                       *****************************

Geometry optimization settings:
Update method            Update   .... BFGS
Choice of coordinates    CoordSys .... Z-matrix Internals
Initial Hessian          InHess   .... Almoef's Model

Convergence Tolerances:
Energy Change            TolE     ....  5.0000e-06 Eh
Max. Gradient            TolMAXG  ....  3.0000e-04 Eh/bohr
RMS Gradient             TolRMSG  ....  1.0000e-04 Eh/bohr
Max. Displacement        TolMAXD  ....  4.0000e-03 bohr
RMS Displacement         TolRMSD  ....  2.0000e-03 bohr
Strict Convergence                ....  False
------------------------------------------------------------------------------
                        ORCA OPTIMIZATION COORDINATE SETUP
------------------------------------------------------------------------------

The optimization will be done in new redundant internal coordinates
Making redundant internal coordinates   ...  (new redundants) done
Evaluating the initial hessian          ...  (Almloef) done
Evaluating the coordinates              ...  done
Calculating the B-matrix                .... done
Calculating the G-matrix                .... done
Diagonalizing the G-matrix              .... done
The first mode is                       ....  371
The number of degrees of freedom        ....   48

    -----------------------------------------------------------------
                    Redundant Internal Coordinates


    -----------------------------------------------------------------
         Definition                    Initial Value    Approx d2E/dq
    -----------------------------------------------------------------
      1. B(H   1,O   0)                  0.9886         0.468016   
      2. B(H   2,O   0)                  0.9584         0.523079   
      3. B(H   4,O   0)                  1.8582         0.019186   
      4. B(H   4,O   3)                  0.9728         0.496036   
      5. B(H   4,H   1)                  2.3031         0.000800   
      6. B(H   5,O   3)                  0.9587         0.522513   
      7. B(H   7,H   4)                  2.4313         0.000499   
      8. B(H   7,H   1)                  2.3526         0.000667   
      9. B(H   7,O   0)                  1.9959         0.011568   
     10. B(H   7,O   6)                  0.9674         0.506056   
     11. B(H   8,H   4)                  2.3093         0.000782   
     12. B(H   8,O   6)                  0.9644         0.511542   
     13. B(H   8,O   3)                  2.1437         0.006721   
     14. B(O   9,H   1)                  1.6879         0.035866   
     15. B(H  10,O   9)                  0.9747         0.492709   
     16. B(H  10,H   1)                  2.1127         0.001610   
     17. B(H  11,H   1)                  2.1785         0.001265   
     18. B(H  11,O   9)                  0.9658         0.509085   
     19. B(O  12,H  10)                  1.8814         0.017616   
     20. B(H  13,H  10)                  2.2925         0.000832   
     21. B(H  13,H   4)                  2.3735         0.000618   
     22. B(H  13,O   3)                  1.9744         0.012521   
     23. B(H  13,O  12)                  0.9670         0.506751   
     24. B(H  14,H  10)                  2.1042         0.001661   
     25. B(H  14,O  12)                  0.9661         0.508483   
     26. B(O  15,H  11)                  2.1094         0.007624   
     27. B(O  15,H  14)                  2.0613         0.009096   
     28. B(H  16,H   8)                  2.2625         0.000929   
     29. B(H  16,H   7)                  2.2340         0.001031   
     30. B(H  16,O   6)                  1.7790         0.025661   
     31. B(H  16,O  15)                  0.9781         0.486435   
     32. B(H  17,O  15)                  0.9585         0.522917   
     33. A(H   2,O   0,H   7)          133.7319         0.187530   
     34. A(H   2,O   0,H   4)          130.0927         0.199483   
     35. A(H   1,O   0,H   4)          103.7647         0.196736   
     36. A(H   1,O   0,H   7)           98.3581         0.185080   
     37. A(H   4,O   0,H   7)           78.1339         0.135627   
     38. A(H   1,O   0,H   2)          106.4011         0.316661   
     39. A(H   4,H   1,H  10)           92.2664         0.098514   
     40. A(O   0,H   1,H  10)          143.7987         0.138745   
     41. A(H  10,H   1,H  11)           40.8936         0.099554   
     42. A(H   7,H   1,O   9)          114.4518         0.111784   
     43. A(O   9,H   1,H  10)           26.8601         0.116813   
     44. A(H   4,H   1,H   7)           62.9514         0.096794   
     45. A(O   0,H   1,O   9)          168.4624         0.213125   
     46. A(O   0,H   1,H   7)           57.0737         0.129750   
     47. A(O   0,H   1,H  11)          148.2370         0.136099   
     48. A(H   4,H   1,O   9)          118.6751         0.112740   
     49. A(O   9,H   1,H  11)           25.0555         0.115334   
     50. A(H   4,H   1,H  11)          117.5949         0.098008   
     51. A(H   7,H   1,H  10)          108.4971         0.098131   
     52. A(O   0,H   1,H   4)           51.5943         0.131460   
     53. A(H   7,H   1,H  11)           91.1688         0.097645   
     54. A(H   4,O   3,H   8)           87.1308         0.175094   
     55. A(H   5,O   3,H  13)          122.5988         0.189286   
     56. A(H   4,O   3,H  13)          101.8549         0.188112   
     57. A(H   4,O   3,H   5)          106.2671         0.319621   
     58. A(H   8,O   3,H  13)           92.0018         0.126438   
     59. A(H   5,O   3,H   8)          137.6745         0.176114   
     60. A(O   0,H   4,H  13)          110.3870         0.108435   
     61. A(H   7,H   4,H   8)           36.8628         0.096263   
     62. A(O   3,H   4,H  13)           54.4967         0.129578   
     63. A(O   0,H   4,O   3)          154.6816         0.198163   
     64. A(H   7,H   4,H  13)           95.7328         0.095885   
     65. A(O   3,H   4,H   8)           67.9887         0.131802   
     66. A(O   0,H   4,H   1)           24.6410         0.109606   
     67. A(H   1,H   4,H   7)           59.5179         0.096300   
     68. A(H   8,H   4,H  13)           78.5433         0.096620   
     69. A(H   1,H   4,H  13)           86.4159         0.096659   
     70. A(O   0,H   4,H   8)           90.1314         0.109500   
     71. A(H   1,H   4,H   8)           90.8907         0.097079   
     72. A(O   0,H   4,H   7)           53.4534         0.107523   
     73. A(O   3,H   4,H   7)          104.5508         0.127674   
     74. A(H   1,H   4,O   3)          137.6694         0.132023   
     75. A(H   7,O   6,H   8)          102.1882         0.319557   
     76. A(H   8,O   6,H  16)          107.3567         0.206405   
     77. A(H   7,O   6,H  16)          104.9882         0.206119   
     78. A(O   0,H   7,H   1)           24.5682         0.106636   
     79. A(H   1,H   7,O   6)          133.7018         0.130478   
     80. A(O   0,H   7,O   6)          148.5058         0.186795   
     81. A(H   1,H   7,H  16)           89.6360         0.097255   
     82. A(O   0,H   7,H  16)          113.3648         0.108463   
     83. A(O   6,H   7,H  16)           50.2853         0.134775   
     84. A(H   4,H   7,H  16)          102.7743         0.096732   
     85. A(H   1,H   7,H   4)           57.5306         0.096006   
     86. A(O   0,H   7,H   4)           48.4127         0.105519   
     87. A(H   4,H   7,O   6)          104.3119         0.127850   
     88. A(O   3,H   8,O   6)          136.0167         0.175696   
     89. A(O   3,H   8,H  16)          112.2126         0.105810   
     90. A(O   6,H   8,H  16)           48.6350         0.133814   
     91. A(O   3,H   8,H   4)           24.8805         0.105168   
     92. A(H   4,H   8,H  16)          105.8401         0.097357   
     93. A(H   4,H   8,O   6)          113.0860         0.132101   
     94. A(H   1,O   9,H  11)          107.1996         0.215510   
     95. A(H  10,O   9,H  11)          101.2843         0.317917   
     96. A(H   1,O   9,H  10)          101.6553         0.214578   
     97. A(O  12,H  10,H  14)           27.3281         0.112848   
     98. A(H   1,H  10,H  14)          113.1019         0.100226   
     99. A(H   1,H  10,O   9)           51.4846         0.139327   
    100. A(O   9,H  10,H  14)          129.1181         0.139686   
    101. A(H  13,H  10,H  14)           40.3276         0.098668   
    102. A(O  12,H  10,H  13)           24.3306         0.109392   
    103. A(H   1,H  10,H  13)           93.1702         0.098599   
    104. A(O   9,H  10,H  13)          139.6853         0.132341   
    105. A(H   1,H  10,O  12)          116.7377         0.112679   
    106. A(O   9,H  10,O  12)          154.1020         0.195912   
    107. A(H   1,H  11,O   9)           47.7450         0.137004   
    108. A(H   1,H  11,O  15)          110.3754         0.107548   
    109. A(O   9,H  11,O  15)          138.4136         0.178108   
    110. A(H  13,O  12,H  14)          104.2434         0.319316   
    111. A(H  10,O  12,H  14)           89.2840         0.196678   
    112. A(H  10,O  12,H  13)          102.3870         0.196595   
    113. A(H   4,H  13,O  12)          139.3159         0.129774   
    114. A(O   3,H  13,O  12)          162.0699         0.188593   
    115. A(H   4,H  13,H  10)           86.1220         0.096728   
    116. A(O   3,H  13,H  10)          109.5712         0.107876   
    117. A(H  10,H  13,O  12)           53.2824         0.132618   
    118. A(O   3,H  13,H   4)           23.6483         0.106645   
    119. A(H  10,H  14,O  15)           86.4741         0.109534   
    120. A(O  12,H  14,O  15)          147.7081         0.181715   
    121. A(H  10,H  14,O  12)           63.3879         0.140049   
    122. A(H  11,O  15,H  14)           77.8701         0.124834   
    123. A(H  14,O  15,H  17)          131.7227         0.182304   
    124. A(H  14,O  15,H  16)           98.3087         0.180790   
    125. A(H  16,O  15,H  17)          105.9349         0.318643   
    126. A(H  11,O  15,H  17)          136.1515         0.178650   
    127. A(H  11,O  15,H  16)           98.5830         0.177194   
    128. A(H   7,H  16,H   8)           39.0568         0.097897   
    129. A(O   6,H  16,H   8)           24.0083         0.111765   
    130. A(H   8,H  16,O  15)          147.7059         0.133307   
    131. A(O   6,H  16,H   7)           24.7265         0.112310   
    132. A(H   7,H  16,O  15)          145.3191         0.134367   
    133. A(O   6,H  16,O  15)          167.0604         0.205076   
    134. D(O   9,H   1,O   0,H   4)     34.7170         0.390938   
    135. D(H   7,H   1,O   0,H   4)     79.7475         0.390938   
    136. D(H  10,H   1,O   0,H   7)    -75.8291         0.390938   
    137. D(O   9,H   1,O   0,H   7)    -45.0305         0.390938   
    138. D(H   4,H   1,O   0,H   2)    139.7559         0.390938   
    139. D(H  11,H   1,O   0,H   2)   -139.3059         0.390938   
    140. D(H   4,H   1,O   0,H   7)    -79.7475         0.390938   
    141. D(H  10,H   1,O   0,H   4)      3.9184         0.390938   
    142. D(O   9,H   1,O   0,H   2)    174.4729         0.390938   
    143. D(H  11,H   1,O   0,H   4)     80.9382         0.390938   
    144. D(H  11,H   1,O   0,H   7)      1.1907         0.390938   
    145. D(H   7,H   1,O   0,H   2)   -140.4966         0.390938   
    146. D(H  10,H   1,O   0,H   2)    143.6742         0.390938   
    147. D(H   8,H   4,H   1,H   7)     20.3389         0.001510   
    148. D(O   0,H   4,H   1,H   7)    -68.0341         0.001510   
    149. D(H  13,H   4,O   0,H   7)     81.7890         0.001789   
    150. D(O   0,H   4,H   1,H  10)   -177.6851         0.001510   
    151. D(H   8,H   4,O   3,H   5)   -139.1571         0.453874   
    152. D(H   7,H   4,O   3,H   5)   -143.9499         0.453874   
    153. D(H   1,H   4,O   0,H   2)   -125.8907         0.001789   
    154. D(H  13,H   4,O   0,H   2)   -139.9246         0.001789   
    155. D(H   1,H   4,O   3,H   8)    -65.2352         0.453874   
    156. D(H   7,H   4,H   1,O   0)     68.0341         0.001510   
    157. D(O   3,H   4,H   1,O   0)    145.7197         0.001510   
    158. D(H   1,H   4,O   0,H   7)     95.8229         0.001789   
    159. D(O   3,H   4,H   1,H  10)    -31.9654         0.001510   
    160. D(H   8,H   4,O   3,H  13)     91.4449         0.453874   
    161. D(O   3,H   4,O   0,H   1)    -62.4893         0.001789   
    162. D(H   7,H   4,O   3,H   8)     -4.7928         0.453874   
    163. D(O   3,H   4,O   0,H   2)    171.6200         0.001789   
    164. D(H   8,H   4,O   0,H   1)    -91.8501         0.001789   
    165. D(H   7,H   4,O   0,H   1)    -95.8229         0.001789   
    166. D(H  13,H   4,H   1,H  10)    -10.8498         0.001510   
    167. D(H   8,H   4,H   1,O   9)    -84.1669         0.001510   
    168. D(H   7,H   4,O   0,H   2)    138.2864         0.001789   
    169. D(H  13,H   4,O   0,H   1)    -14.0339         0.001789   
    170. D(H  13,H   4,O   3,H   5)    129.3980         0.453874   
    171. D(H   1,H   4,O   3,H  13)     26.2097         0.453874   
    172. D(H   7,H   4,H   1,O   9)   -104.5059         0.001510   
    173. D(H   8,H   4,H   1,H  10)    -89.3120         0.001510   
    174. D(H   7,H   4,H   1,H  11)    -76.0525         0.001510   
    175. D(H  13,H   4,H   1,H  11)     22.7486         0.001510   
    176. D(H   8,H   4,O   0,H   7)      3.9728         0.001789   
    177. D(H   7,H   4,H   1,H  10)   -109.6510         0.001510   
    178. D(H   8,H   4,H   1,O   0)     88.3731         0.001510   
    179. D(H  13,H   4,H   1,H   7)     98.8012         0.001510   
    180. D(H   8,H   4,H   1,H  11)    -55.7136         0.001510   
    181. D(H   8,H   4,O   0,H   2)    142.2592         0.001789   
    182. D(O   3,H   4,H   1,O   9)    -26.8203         0.001510   
    183. D(H   1,H   4,O   3,H   5)    155.6076         0.453874   
    184. D(O   0,H   4,H   1,H  11)   -144.0867         0.001510   
    185. D(H  13,H   4,H   1,O   9)     -5.7047         0.001510   
    186. D(O   0,H   4,H   1,O   9)   -172.5400         0.001510   
    187. D(O   3,H   4,O   0,H   7)     33.3335         0.001789   
    188. D(H  13,H   4,H   1,O   0)    166.8353         0.001510   
    189. D(O   0,H   4,O   3,H   5)   -171.0852         0.453874   
    190. D(H  13,H   4,O   3,H   8)    -91.4449         0.453874   
    191. D(O   3,H   4,H   1,H  11)      1.6331         0.001510   
    192. D(H   7,H   4,O   3,H  13)     86.6521         0.453874   
    193. D(O   3,H   4,H   1,H   7)     77.6856         0.001510   
    194. D(O   0,H   4,O   3,H   8)    -31.9280         0.453874   
    195. D(O   0,H   4,O   3,H  13)     59.5169         0.453874   
    196. D(O   6,H   7,O   0,H   1)     67.0798         0.001597   
    197. D(H  16,H   7,O   6,H   8)    111.9486         0.421007   
    198. D(H   4,H   7,O   6,H   8)     17.0878         0.421007   
    199. D(H   1,H   7,O   6,H  16)    -36.3649         0.421007   
    200. D(H  16,H   7,H   4,O   0)    110.0283         0.001504   
    201. D(H  16,H   7,H   4,H   8)    -63.3399         0.001504   
    202. D(H  16,H   7,H   4,H   1)     81.2578         0.001504   
    203. D(O   0,H   7,O   6,H  16)    -68.3506         0.421007   
    204. D(H  16,H   7,H   4,O   3)    -55.9208         0.001504   
    205. D(O   0,H   7,O   6,H   8)     43.5981         0.421007   
    206. D(H   1,H   7,H   4,H  13)    -82.4150         0.001504   
    207. D(H   4,H   7,O   6,H  16)    -94.8609         0.421007   
    208. D(H   1,H   7,O   6,H   8)     75.5837         0.421007   
    209. D(O   0,H   7,H   4,H   8)   -173.3681         0.001504   
    210. D(O   0,H   7,H   4,H  13)   -111.1855         0.001504   
    211. D(O   0,H   7,H   4,H   1)    -28.7705         0.001504   
    212. D(O   0,H   7,H   4,O   3)   -165.9490         0.001504   
    213. D(O   6,H   7,H   4,H  13)     50.6489         0.001504   
    214. D(O   6,H   7,H   4,O   0)    161.8343         0.001504   
    215. D(O   6,H   7,H   4,H   1)    133.0638         0.001504   
    216. D(H  16,H   7,H   1,H  11)     15.2163         0.001506   
    217. D(H  16,H   7,H   1,H  10)    -22.5565         0.001506   
    218. D(H  16,H   7,H   1,O   9)      5.6467         0.001506   
    219. D(H   4,H   7,H   1,H  10)     82.8775         0.001506   
    220. D(H   4,H   7,H   1,O   0)    -59.9766         0.001506   
    221. D(O   0,H   7,H   1,H   4)     59.9766         0.001506   
    222. D(H  16,H   7,H   1,H   4)   -105.4340         0.001506   
    223. D(O   6,H   7,H   4,O   3)     -4.1147         0.001504   
    224. D(O   0,H   7,H   1,H  11)   -179.3731         0.001506   
    225. D(H   4,H   7,H   1,O   9)    111.0807         0.001506   
    226. D(O   0,H   7,H   1,H  10)    142.8541         0.001506   
    227. D(O   6,H   7,H   4,H   8)    -11.5338         0.001504   
    228. D(O   0,H   7,H   1,O   9)    171.0573         0.001506   
    229. D(H  16,H   7,H   1,O   0)   -165.4106         0.001506   
    230. D(O   6,H   7,H   1,H   4)    -78.2977         0.001506   
    231. D(O   6,H   7,H   1,H  11)     42.3526         0.001506   
    232. D(H   1,H   7,H   4,O   3)   -137.1786         0.001504   
    233. D(H   1,H   7,H   4,O   0)     28.7705         0.001504   
    234. D(H   4,H   7,H   1,H  11)    120.6503         0.001506   
    235. D(H   1,H   7,H   4,H   8)   -144.5976         0.001504   
    236. D(O   6,H   7,H   1,O   9)     32.7830         0.001506   
    237. D(O   6,H   7,H   1,O   0)   -138.2743         0.001506   
    238. D(H  16,H   7,O   0,H   4)    -86.4826         0.001597   
    239. D(H  16,H   7,H   4,H  13)     -1.1572         0.001504   
    240. D(O   6,H   7,H   1,H  10)      4.5798         0.001506   
    241. D(H  16,H   7,O   0,H   2)    138.3043         0.001597   
    242. D(O   6,H   7,O   0,H   4)    -35.3282         0.001597   
    243. D(H   4,H   7,O   0,H   2)   -135.2132         0.001597   
    244. D(H   1,H   7,O   0,H   4)   -102.4079         0.001597   
    245. D(H   1,H   7,O   0,H   2)    122.3789         0.001597   
    246. D(H  16,H   7,O   0,H   1)     15.9254         0.001597   
    247. D(H   4,H   7,O   0,H   1)    102.4079         0.001597   
    248. D(O   6,H   7,O   0,H   2)   -170.5413         0.001597   
    249. D(O   6,H   8,H   4,O   0)      6.8718         0.001508   
    250. D(O   6,H   8,H   4,H   1)    -17.7587         0.001508   
    251. D(O   6,H   8,H   4,O   3)   -160.0569         0.001508   
    252. D(H  16,H   8,O   3,H  13)    -22.1284         0.001531   
    253. D(H  16,H   8,O   3,H   5)   -169.1613         0.001531   
    254. D(O   6,H   8,H   4,H  13)   -103.9202         0.001508   
    255. D(H  16,H   8,O   3,H   4)     79.6464         0.001531   
    256. D(H   4,H   8,O   3,H  13)   -101.7748         0.001531   
    257. D(H   4,H   8,O   3,H   5)    111.1922         0.001531   
    258. D(O   6,H   8,O   3,H  13)    -74.9137         0.001531   
    259. D(O   6,H   8,O   3,H   5)    138.0534         0.001531   
    260. D(O   6,H   8,O   3,H   4)     26.8611         0.001531   
    261. D(H   4,H   8,O   6,H   7)    -19.0169         0.401285   
    262. D(H  16,H   8,H   4,H   1)     33.5003         0.001508   
    263. D(H  16,H   8,H   4,H  13)    -52.6613         0.001508   
    264. D(H   4,H   8,O   6,H  16)     91.1475         0.401285   
    265. D(O   3,H   8,O   6,H   7)    -30.9427         0.401285   
    266. D(H  16,H   8,H   4,O   0)     58.1308         0.001508   
    267. D(O   3,H   8,O   6,H  16)     79.2216         0.401285   
    268. D(H  16,H   8,H   4,O   3)   -108.7979         0.001508   
    269. D(O   3,H   8,H   4,H   7)    172.2523         0.001508   
    270. D(H  16,H   8,H   4,H   7)     63.4544         0.001508   
    271. D(O   3,H   8,H   4,H  13)     56.1366         0.001508   
    272. D(O   3,H   8,H   4,H   1)    142.2982         0.001508   
    273. D(H  16,H   8,O   6,H   7)   -110.1644         0.401285   
    274. D(O   3,H   8,H   4,O   0)    166.9287         0.001508   
    275. D(O   6,H   8,H   4,H   7)     12.1955         0.001508   
    276. D(H  11,O   9,H   1,H   7)     23.1085         0.002499   
    277. D(H  11,O   9,H   1,H   4)     94.4037         0.002499   
    278. D(H  11,O   9,H   1,H  10)    105.8430         0.002499   
    279. D(H  11,O   9,H   1,O   0)     63.8275         0.002499   
    280. D(H  10,O   9,H   1,H   7)    -82.7345         0.002499   
    281. D(H  10,O   9,H   1,H   4)    -11.4393         0.002499   
    282. D(H  10,O   9,H   1,H  11)   -105.8430         0.002499   
    283. D(H  10,O   9,H   1,O   0)    -42.0155         0.002499   
    284. D(H  14,H  10,O   9,H   1)     89.9507         0.392975   
    285. D(H  13,H  10,O   9,H   1)     34.0313         0.392975   
    286. D(H  13,H  10,O   9,H  11)    -76.3972         0.392975   
    287. D(O  12,H  10,O   9,H   1)     71.1741         0.392975   
    288. D(H   1,H  10,O   9,H  11)   -110.4285         0.392975   
    289. D(H  14,H  10,H   1,H   7)    -14.7013         0.001536   
    290. D(H  14,H  10,H   1,H   4)     47.4815         0.001536   
    291. D(H  14,H  10,H   1,O   9)   -122.4898         0.001536   
    292. D(H  14,H  10,H   1,O   0)     44.4095         0.001536   
    293. D(H  13,H  10,H   1,H   7)    -50.9492         0.001536   
    294. D(H  13,H  10,H   1,H   4)     11.2335         0.001536   
    295. D(H  13,H  10,H   1,H  11)   -120.2517         0.001536   
    296. D(H  13,H  10,H   1,O   9)   -158.7377         0.001536   
    297. D(H  13,H  10,H   1,O   0)      8.1615         0.001536   
    298. D(O  12,H  10,H   1,H   7)    -44.6371         0.001536   
    299. D(H  14,H  10,H   1,H  11)    -84.0037         0.001536   
    300. D(O  12,H  10,H   1,H   4)     17.5457         0.001536   
    301. D(O  12,H  10,H   1,H  11)   -113.9396         0.001536   
    302. D(O  12,H  10,H   1,O   9)   -152.4256         0.001536   
    303. D(O  12,H  10,O   9,H  11)    -39.2544         0.392975   
    304. D(O  12,H  10,H   1,O   0)     14.4736         0.001536   
    305. D(O   9,H  10,H   1,H   7)    107.7885         0.001536   
    306. D(O   9,H  10,H   1,H   4)    169.9713         0.001536   
    307. D(H  14,H  10,O   9,H  11)    -20.4778         0.392975   
    308. D(O   9,H  10,H   1,H  11)     38.4860         0.001536   
    309. D(O   9,H  10,H   1,O   0)    166.8992         0.001536   
    310. D(O  15,H  11,O   9,H   1)    -71.6360         0.363112   
    311. D(H   1,H  11,O   9,H  10)    106.1060         0.363112   
    312. D(O  15,H  11,H   1,H   7)    -21.2837         0.001520   
    313. D(O  15,H  11,H   1,H   4)     38.5469         0.001520   
    314. D(O  15,H  11,H   1,H  10)     96.1782         0.001520   
    315. D(O  15,H  11,H   1,O   9)    137.7790         0.001520   
    316. D(O  15,H  11,H   1,O   0)    -22.2833         0.001520   
    317. D(O   9,H  11,H   1,H   7)   -159.0627         0.001520   
    318. D(O   9,H  11,H   1,H   4)    -99.2321         0.001520   
    319. D(O  15,H  11,O   9,H  10)     34.4700         0.363112   
    320. D(O   9,H  11,H   1,H  10)    -41.6008         0.001520   
    321. D(O   9,H  11,H   1,O   0)   -160.0623         0.001520   
    322. D(H  14,O  12,H  10,H  13)    104.4291         0.001713   
    323. D(H  14,O  12,H  10,H   1)     88.9762         0.001713   
    324. D(H  14,O  12,H  10,O   9)     32.9544         0.001713   
    325. D(H  13,O  12,H  10,H  14)   -104.4291         0.001713   
    326. D(H  13,O  12,H  10,H   1)    -15.4529         0.001713   
    327. D(H  13,O  12,H  10,O   9)    -71.4747         0.001713   
    328. D(H  10,H  13,O  12,H  14)    -92.4388         0.391647   
    329. D(H   4,H  13,O  12,H  14)    -88.0369         0.391647   
    330. D(O   3,H  13,O  12,H  10)     18.6224         0.391647   
    331. D(O   3,H  13,O  12,H  14)    -73.8164         0.391647   
    332. D(H   4,H  13,H  10,H  14)   -133.7315         0.001509   
    333. D(H   4,H  13,H  10,O  12)   -177.1255         0.001509   
    334. D(H   4,H  13,H  10,H   1)    -10.9130         0.001509   
    335. D(H   4,H  13,H  10,O   9)    -36.9251         0.001509   
    336. D(O   3,H  13,H  10,O  12)   -174.0111         0.001509   
    337. D(O   3,H  13,H  10,H   1)     -7.7986         0.001509   
    338. D(O   3,H  13,H  10,O   9)    -33.8106         0.001509   
    339. D(O  12,H  13,H  10,H   1)    166.2125         0.001509   
    340. D(O  12,H  13,H  10,O   9)    140.2004         0.001509   
    341. D(H  10,H  13,H   4,H   8)    101.6434         0.001505   
    342. D(H  10,H  13,H   4,H   7)     68.8670         0.001505   
    343. D(H  10,H  13,H   4,H   1)     10.0053         0.001505   
    344. D(H  10,H  13,H   4,O   0)     15.8195         0.001505   
    345. D(H  10,H  13,H   4,O   3)    172.6679         0.001505   
    346. D(O   3,H  13,H   4,H   8)    -71.0245         0.001505   
    347. D(O   3,H  13,H   4,H   7)   -103.8009         0.001505   
    348. D(O   3,H  13,H   4,H   1)   -162.6626         0.001505   
    349. D(O   3,H  13,H   4,O   0)   -156.8484         0.001505   
    350. D(O  12,H  13,H   4,H   8)     98.1081         0.001505   
    351. D(O  12,H  13,H  10,H  14)     43.3941         0.001509   
    352. D(O  12,H  13,H   4,H   7)     65.3316         0.001505   
    353. D(O  12,H  13,H   4,H   1)      6.4699         0.001505   
    354. D(O  12,H  13,H   4,O   0)     12.2841         0.001505   
    355. D(O   3,H  13,H  10,H  14)   -130.6170         0.001509   
    356. D(O  12,H  13,H   4,O   3)    169.1325         0.001505   
    357. D(H  10,H  13,O   3,H   8)     79.7208         0.001607   
    358. D(H  10,H  13,O   3,H   5)   -126.0594         0.001607   
    359. D(H  10,H  13,O   3,H   4)     -7.7665         0.001607   
    360. D(H   4,H  13,O   3,H   8)     87.4873         0.001607   
    361. D(H   4,H  13,O   3,H   5)   -118.2929         0.001607   
    362. D(O  12,H  13,O   3,H   8)     63.9573         0.001607   
    363. D(H   4,H  13,O  12,H  10)      4.4019         0.391647   
    364. D(O  12,H  13,O   3,H   5)   -141.8229         0.001607   
    365. D(O  12,H  13,O   3,H   4)    -23.5300         0.001607   
    366. D(O  15,H  14,O  12,H  10)    -22.8456         0.362004   
    367. D(O  15,H  14,O  12,H  13)     79.7555         0.362004   
    368. D(H  10,H  14,O  12,H  13)    102.6011         0.362004   
    369. D(O  15,H  14,H  10,H  13)    129.9413         0.001532   
    370. D(O  15,H  14,H  10,O  12)    168.0060         0.001532   
    371. D(O  15,H  14,H  10,H   1)     64.1215         0.001532   
    372. D(O  15,H  14,H  10,O   9)      5.8384         0.001532   
    373. D(O  12,H  14,H  10,H  13)    -38.0647         0.001532   
    374. D(O  12,H  14,H  10,H   1)   -103.8845         0.001532   
    375. D(O  12,H  14,H  10,O   9)   -162.1676         0.001532   
    376. D(H  11,O  15,H  14,H  10)      5.0305         0.001552   
    377. D(H  11,O  15,H  14,O  12)     25.3818         0.001552   
    378. D(H  17,O  15,H  14,H  10)    147.8424         0.001552   
    379. D(H  17,O  15,H  14,O  12)    168.1937         0.001552   
    380. D(H  16,O  15,H  14,H  10)    -92.0279         0.001552   
    381. D(H  16,O  15,H  14,O  12)    -71.6766         0.001552   
    382. D(H  14,O  15,H  11,H   1)    -77.5111         0.001537   
    383. D(H  14,O  15,H  11,O   9)    -28.9769         0.001537   
    384. D(H  17,O  15,H  11,H   1)    143.1225         0.001537   
    385. D(H  17,O  15,H  11,O   9)   -168.3433         0.001537   
    386. D(H  16,O  15,H  11,H   1)     19.2102         0.001537   
    387. D(H  16,O  15,H  11,O   9)     67.7444         0.001537   
    388. D(O  15,H  16,O   6,H   7)     47.7996         0.001929   
    389. D(H   8,H  16,O  15,H  14)     -1.5238         0.380237   
    390. D(H   8,H  16,O  15,H  11)    -80.4121         0.380237   
    391. D(H   8,H  16,O  15,H  17)    136.3065         0.380237   
    392. D(H   7,H  16,O  15,H  11)     -5.9413         0.380237   
    393. D(H   7,H  16,O  15,H  17)   -149.2228         0.380237   
    394. D(O   6,H  16,O  15,H  14)     39.9513         0.380237   
    395. D(O   6,H  16,O  15,H  17)    177.7815         0.380237   
    396. D(H   7,H  16,H   8,H   4)    -67.9603         0.001510   
    397. D(H   7,H  16,H   8,O   3)    -93.4414         0.001510   
    398. D(H   7,H  16,H   8,O   6)     39.0921         0.001510   
    399. D(O   6,H  16,H   8,H   4)   -107.0524         0.001510   
    400. D(O   6,H  16,H   8,O   3)   -132.5335         0.001510   
    401. D(O  15,H  16,H   8,H   4)     51.5708         0.001510   
    402. D(O  15,H  16,H   8,O   3)     26.0898         0.001510   
    403. D(O  15,H  16,H   8,O   6)    158.6233         0.001510   
    404. D(H   8,H  16,H   7,H   4)     60.2840         0.001513   
    405. D(H   8,H  16,H   7,H   1)    116.7848         0.001513   
    406. D(H   8,H  16,H   7,O   0)    110.2339         0.001513   
    407. D(H   8,H  16,H   7,O   6)    -37.8326         0.001513   
    408. D(O   6,H  16,H   7,H   4)     98.1165         0.001513   
    409. D(O   6,H  16,H   7,H   1)    154.6174         0.001513   
    410. D(O   6,H  16,H   7,O   0)    148.0665         0.001513   
    411. D(O   6,H  16,O  15,H  11)    -38.9370         0.380237   
    412. D(O  15,H  16,H   7,H   4)    -64.9339         0.001513   
    413. D(O  15,H  16,H   7,H   1)     -8.4331         0.001513   
    414. D(O  15,H  16,H   7,O   0)    -14.9839         0.001513   
    415. D(H   7,H  16,O  15,H  14)     72.9470         0.380237   
    416. D(O  15,H  16,H   7,O   6)   -163.0504         0.001513   
    417. D(H   8,H  16,O   6,H   7)    108.2199         0.001929   
    418. D(H   7,H  16,O   6,H   8)   -108.2199         0.001929   
    419. D(O  15,H  16,O   6,H   8)    -60.4202         0.001929   
    -----------------------------------------------------------------

Number of atoms                         .... 18
Number of degrees of freedom            .... 419

         *************************************************************
         *                GEOMETRY OPTIMIZATION CYCLE   1            *
         *************************************************************
---------------------------------
CARTESIAN COORDINATES (ANGSTROEM)
---------------------------------
  O     -1.511782   -0.232325    1.434522
  H     -0.613900   -0.631798    1.542476
  H     -2.015087   -0.484249    2.210210
  O     -1.744551   -0.350365   -1.322141
  H     -1.890020   -0.475498   -0.368433
  H     -2.508917   -0.726304   -1.761973
  O     -0.568902    2.010658   -0.079448
  H     -0.957800    1.521230    0.658817
  H     -0.991476    1.598457   -0.842120
  O      0.972064   -1.194842    1.413465
  H      0.986177   -1.536208    0.500658
  H      1.544338   -0.420911    1.334663
  O      0.983916   -1.359847   -1.372465
  H      0.077993   -1.073694   -1.552782
  H      1.480193   -0.535792   -1.283351
  O      2.003223    1.063257   -0.092296
  H      1.144078    1.530799   -0.098089
  H      2.672690    1.741694   -0.193152

----------------------------
CARTESIAN COORDINATES (A.U.)
----------------------------
  NO LB      ZA    FRAG     MASS         X           Y           Z
   0 O     8.0000    0    15.999   -2.856854   -0.439031    2.710854
   1 H     1.0000    0     1.008   -1.160103   -1.193925    2.914857
   2 H     1.0000    0     1.008   -3.807963   -0.915098    4.176692
   3 O     8.0000    0    15.999   -3.296724   -0.662094   -2.498484
   4 H     1.0000    0     1.008   -3.571620   -0.898561   -0.696237
   5 H     1.0000    0     1.008   -4.741166   -1.372516   -3.329646
   6 O     8.0000    0    15.999   -1.075069    3.799593   -0.150135
   7 H     1.0000    0     1.008   -1.809980    2.874708    1.244984
   8 H     1.0000    0     1.008   -1.873618    3.020646   -1.591376
   9 O     8.0000    0    15.999    1.836935   -2.257924    2.671062
  10 H     1.0000    0     1.008    1.863604   -2.903012    0.946107
  11 H     1.0000    0     1.008    2.918376   -0.795407    2.522148
  12 O     8.0000    0    15.999    1.859332   -2.569738   -2.593583
  13 H     1.0000    0     1.008    0.147385   -2.028988   -2.934333
  14 H     1.0000    0     1.008    2.797159   -1.012500   -2.425182
  15 O     8.0000    0    15.999    3.785543    2.009265   -0.174414
  16 H     1.0000    0     1.008    2.161994    2.892791   -0.185361
  17 H     1.0000    0     1.008    5.050652    3.291325   -0.365004

--------------------------------
INTERNAL COORDINATES (ANGSTROEM)
--------------------------------
 O      0   0   0     0.000000000000     0.00000000     0.00000000
 H      1   0   0     0.988647980714     0.00000000     0.00000000
 H      1   2   0     0.958370230206   106.40107860     0.00000000
 O      1   2   3     2.768990022468    99.66154740   212.47552383
 H      4   1   2     0.972819842989    16.67729903   119.09110810
 H      4   1   2     0.958664540859   122.71743384   129.27539765
 O      5   4   1     2.830165499840    85.25660701    25.76878351
 H      7   5   4     0.967376158386    56.34640489   176.00376880
 H      7   5   4     0.964441304311    48.64483482    18.50046316
 O      2   1   3     1.687881569706   168.46243150   174.47289154
 H     10   2   1     0.974652010706   101.65533573   317.98448536
 H     10   2   1     0.965751768852   107.19959144    63.82750841
 O     11  10   2     1.881408538189   154.10203042    71.17408028
 H     13  11  10     0.967002710351   102.38699361   288.52530951
 H     13  11  10     0.966073914745    89.28401566    32.95438596
 O     15  13  11     2.061341819865   147.70808320   337.15441420
 H     16  15  13     0.978140691127    98.30865326   288.32341443
 H     16  15  13     0.958454359787   131.72266037   168.19370025

---------------------------
INTERNAL COORDINATES (A.U.)
---------------------------
 O      0   0   0     0.000000000000     0.00000000     0.00000000
 H      1   0   0     1.868273926403     0.00000000     0.00000000
 H      1   2   0     1.811057269992   106.40107860     0.00000000
 O      1   2   3     5.232632810026    99.66154740   212.47552383
 H      4   1   2     1.838363080894    16.67729903   119.09110810
 H      4   1   2     1.811613436525   122.71743384   129.27539765
 O      5   4   1     5.348237708370    85.25660701    25.76878351
 H      7   5   4     1.828076007834    56.34640489   176.00376880
 H      7   5   4     1.822529937389    48.64483482    18.50046316
 O      2   1   3     3.189633913237   168.46243150   174.47289154
 H     10   2   1     1.841825376111   101.65533573   317.98448536
 H     10   2   1     1.825006356481   107.19959144    63.82750841
 O     11  10   2     3.555346883199   154.10203042    71.17408028
 H     13  11  10     1.827370293324   102.38699361   288.52530951
 H     13  11  10     1.825615123993    89.28401566    32.95438596
 O     15  13  11     3.895371507944   147.70808320   337.15441420
 H     16  15  13     1.848418026674    98.30865326   288.32341443
 H     16  15  13     1.811216251860   131.72266037   168.19370025

---------------------
BASIS SET INFORMATION
---------------------
There are 2 groups of distinct atoms

 Group   1 Type O   : 19s6p3d2f contracted to 5s4p3d2f pattern {88111/3111/111/11}
 Group   2 Type H   : 6s3p2d contracted to 4s3p2d pattern {3111/111/11}

Atom   0O    basis set group =>   1
Atom   1H    basis set group =>   2
Atom   2H    basis set group =>   2
Atom   3O    basis set group =>   1
Atom   4H    basis set group =>   2
Atom   5H    basis set group =>   2
Atom   6O    basis set group =>   1
Atom   7H    basis set group =>   2
Atom   8H    basis set group =>   2
Atom   9O    basis set group =>   1
Atom  10H    basis set group =>   2
Atom  11H    basis set group =>   2
Atom  12O    basis set group =>   1
Atom  13H    basis set group =>   2
Atom  14H    basis set group =>   2
Atom  15O    basis set group =>   1
Atom  16H    basis set group =>   2
Atom  17H    basis set group =>   2
----------------------------------
AUXILIARY/JK BASIS SET INFORMATION
----------------------------------
There are 2 groups of distinct atoms

 Group   1 Type O   : 14s10p6d2f1g contracted to 10s8p4d2f1g pattern {5111111111/31111111/3111/11/1}
 Group   2 Type H   : 4s2p2d contracted to 2s2p2d pattern {31/11/11}

Atom   0O    basis set group =>   1
Atom   1H    basis set group =>   2
Atom   2H    basis set group =>   2
Atom   3O    basis set group =>   1
Atom   4H    basis set group =>   2
Atom   5H    basis set group =>   2
Atom   6O    basis set group =>   1
Atom   7H    basis set group =>   2
Atom   8H    basis set group =>   2
Atom   9O    basis set group =>   1
Atom  10H    basis set group =>   2
Atom  11H    basis set group =>   2
Atom  12O    basis set group =>   1
Atom  13H    basis set group =>   2
Atom  14H    basis set group =>   2
Atom  15O    basis set group =>   1
Atom  16H    basis set group =>   2
Atom  17H    basis set group =>   2


           ************************************************************
           *        Program running with 24 parallel MPI-processes    *
           *              working on a common directory               *
           ************************************************************
------------------------------------------------------------------------------
                           ORCA GTO INTEGRAL CALCULATION
------------------------------------------------------------------------------

                         BASIS SET STATISTICS AND STARTUP INFO

 # of primitive gaussian shells          ...  312
 # of primitive gaussian functions       ...  696
 # of contracted shells                  ...  192
 # of contracted basis functions         ...  552
 Highest angular momentum                ...    3
 Maximum contraction depth               ...    8
 Integral package used                   ... LIBINT
 Integral threshhold            Thresh   ...  2.500e-11
 Primitive cut-off              TCut     ...  2.500e-12


------------------------------ INTEGRAL EVALUATION ----------------------------


 * One electron integrals 
 Pre-screening matrix                    ... done
 Shell pair data                         ... done (   0.005 sec)



           ************************************************************
           *        Program running with 24 parallel MPI-processes    *
           *              working on a common directory               *
           ************************************************************
-------------------------------------------------------------------------------
                                 ORCA SCF
-------------------------------------------------------------------------------

------------
SCF SETTINGS
------------
Hamiltonian:
 Density Functional     Method          .... DFT(GTOs)
 Exchange Functional    Exchange        .... TPSS
 Correlation Functional Correlation     .... TPSS
 LDA part of GGA corr.  LDAOpt          .... PW91-LDA
 Gradients option       PostSCFGGA      .... off
 Hybrid DFT is turned on
   Fraction HF Exchange ScalHFX         ....  0.100000
   Scaling of DF-GGA-X  ScalDFX         ....  0.900000
   Scaling of DF-GGA-C  ScalDFC         ....  1.000000
   Scaling of DF-LDA-C  ScalLDAC        ....  1.000000
   Perturbative correction              ....  0.000000
   Density functional embedding theory  .... OFF
   NL short-range parameter             ....  5.200000


General Settings:
 Integral files         IntName         .... 09_H2O_6_prism
 Hartree-Fock type      HFTyp           .... RHF
 Total Charge           Charge          ....    0
 Multiplicity           Mult            ....    1
 Number of Electrons    NEL             ....   60
 Basis Dimension        Dim             ....  552
 Nuclear Repulsion      ENuc            ....    304.8722684032 Eh

Convergence Acceleration:
 DIIS                   CNVDIIS         .... on
   Start iteration      DIISMaxIt       ....    12
   Startup error        DIISStart       ....  0.200000
   # of expansion vecs  DIISMaxEq       ....     5
   Bias factor          DIISBfac        ....   1.050
   Max. coefficient     DIISMaxC        ....  10.000
 Newton-Raphson         CNVNR           .... off
 SOSCF                  CNVSOSCF        .... on
   Start iteration      SOSCFMaxIt      ....   150
   Startup grad/error   SOSCFStart      ....  0.003300
 Level Shifting         CNVShift        .... on
   Level shift para.    LevelShift      ....    0.2500
   Turn off err/grad.   ShiftErr        ....    0.0010
 Zerner damping         CNVZerner       .... off
 Static damping         CNVDamp         .... on
   Fraction old density DampFac         ....    0.7000
   Max. Damping (<1)    DampMax         ....    0.9800
   Min. Damping (>=0)   DampMin         ....    0.0000
   Turn off err/grad.   DampErr         ....    0.1000
 Fernandez-Rico         CNVRico         .... off

SCF Procedure:
 Maximum # iterations   MaxIter         ....   125
 SCF integral mode      SCFMode         .... Direct
   Integral package                     .... LIBINT
 Reset frequency        DirectResetFreq ....    20
 Integral Threshold     Thresh          ....  2.500e-11 Eh
 Primitive CutOff       TCut            ....  2.500e-12 Eh

Convergence Tolerance:
 Convergence Check Mode ConvCheckMode   .... Total+1el-Energy
 Convergence forced     ConvForced      .... 0
 Energy Change          TolE            ....  1.000e-08 Eh
 1-El. energy change                    ....  1.000e-05 Eh
 Orbital Gradient       TolG            ....  1.000e-05
 Orbital Rotation angle TolX            ....  1.000e-05
 DIIS Error             TolErr          ....  5.000e-07


Diagonalization of the overlap matrix:
Smallest eigenvalue                        ... 3.067e-05
Time for diagonalization                   ...    0.037 sec
Threshold for overlap eigenvalues          ... 1.000e-08
Number of eigenvalues below threshold      ... 0
Time for construction of square roots      ...    0.043 sec
Total time needed                          ...    0.082 sec

-------------------
DFT GRID GENERATION
-------------------

General Integration Accuracy     IntAcc      ...  4.670
Radial Grid Type                 RadialGrid  ... Gauss-Chebyshev
Angular Grid (max. acc.)         AngularGrid ... Lebedev-302
Angular grid pruning method      GridPruning ... 3 (G Style)
Weight generation scheme         WeightScheme... Becke
Basis function cutoff            BFCut       ...    1.0000e-11
Integration weight cutoff        WCut        ...    1.0000e-14
Grids for H and He will be reduced by one unit

# of grid points (after initial pruning)     ...  78000 (   0.0 sec)
# of grid points (after weights+screening)   ...  71466 (   0.0 sec)
nearest neighbour list constructed           ...    0.0 sec
Grid point re-assignment to atoms done       ...    0.0 sec
Grid point division into batches done        ...    0.2 sec
Reduced shell lists constructed in    0.2 sec

Total number of grid points                  ...    71466
Total number of batches                      ...     1127
Average number of points per batch           ...       63
Average number of grid points per atom       ...     3970
Average number of shells per batch           ...   143.62 (74.80%)
Average number of basis functions per batch  ...   403.12 (73.03%)
Average number of large shells per batch     ...   117.60 (81.88%)
Average number of large basis fcns per batch ...   322.44 (79.98%)
Maximum spatial batch extension              ...   2.66,  2.86,  2.23 au
Average spatial batch extension              ...   0.04,  0.04,  0.04 au

Time for grid setup =    0.295 sec

------------------------------
INITIAL GUESS: MODEL POTENTIAL
------------------------------
Loading Hartree-Fock densities                     ... done
Calculating cut-offs                               ... done
Setting up the integral package                    ... done
Initializing the effective Hamiltonian             ... done
Starting the Coulomb interaction                   ... done (   0.0 sec)
Reading the grid                                   ... done
Mapping shells                                     ... done
Starting the XC term evaluation                    ... done (   0.2 sec)
  promolecular density results
     # of electrons  =     59.993462020
     EX              =    -52.453698502
     EC              =     -1.950010425
     EX+EC           =    -54.403708928
Transforming the Hamiltonian                       ... done (   0.0 sec)
Diagonalizing the Hamiltonian                      ... done (   0.0 sec)
Back transforming the eigenvectors                 ... done (   0.0 sec)
Now organizing SCF variables                       ... done
                      ------------------
                      INITIAL GUESS DONE (   0.6 sec)
                      ------------------
--------------
SCF ITERATIONS
--------------
ITER       Energy         Delta-E        Max-DP      RMS-DP      [F,P]     Damp
               ***  Starting incremental Fock matrix formation  ***
  0   -458.3794160793   0.000000000000 0.09486897  0.00102352  0.3204622 0.7000
  1   -458.5985074559  -0.219091376597 0.04550861  0.00059266  0.1243945 0.7000
                               ***Turning on DIIS***
  2   -458.6668173871  -0.068309931234 0.05684141  0.00077544  0.0281720 0.0000
  3   -458.7894981172  -0.122680730106 0.01926368  0.00028387  0.0745547 0.0000
  4   -458.8134877831  -0.023989665872 0.00338757  0.00006367  0.0144399 0.0000
  5   -458.8146009273  -0.001113144255 0.00228826  0.00002354  0.0037035 0.0000
                      *** Initiating the SOSCF procedure ***
                           *** Shutting down DIIS ***
                      *** Re-Reading the Fockian *** 
                      *** Removing any level shift *** 
ITER      Energy       Delta-E        Grad      Rot      Max-DP    RMS-DP
  6   -458.81466600  -0.0000650754  0.000270  0.000270  0.001096  0.000013
               *** Restarting incremental Fock matrix formation ***
  7   -458.81467868  -0.0000126779  0.000133  0.000429  0.000738  0.000010
  8   -458.81467918  -0.0000005028  0.000098  0.000090  0.000356  0.000004
  9   -458.81468017  -0.0000009828  0.000026  0.000099  0.000182  0.000002
 10   -458.81468023  -0.0000000663  0.000010  0.000010  0.000044  0.000000
 11   -458.81468024  -0.0000000080  0.000008  0.000016  0.000045  0.000001
                 **** Energy Check signals convergence ****
              ***Rediagonalizing the Fockian in SOSCF/NRSCF***

               *****************************************************
               *                     SUCCESS                       *
               *           SCF CONVERGED AFTER  12 CYCLES          *
               *****************************************************


----------------
TOTAL SCF ENERGY
----------------

Total Energy       :         -458.81468025 Eh          -12484.98217 eV

Components:
Nuclear Repulsion  :          304.87226840 Eh            8295.99618 eV
Electronic Energy  :         -763.68694865 Eh          -20780.97836 eV
One Electron Energy:        -1237.66267132 Eh          -33678.51347 eV
Two Electron Energy:          473.97572267 Eh           12897.53511 eV

Virial components:
Potential Energy   :         -915.47208940 Eh          -24911.26202 eV
Kinetic Energy     :          456.65740915 Eh           12426.27984 eV
Virial Ratio       :            2.00472405


DFT components:
N(Alpha)           :       29.999837537980 electrons
N(Beta)            :       29.999837537980 electrons
N(Total)           :       59.999675075960 electrons
E(X)               :      -48.694336655267 Eh       
E(C)               :       -1.999913424682 Eh       
E(XC)              :      -50.694250079949 Eh       
DFET-embed. en.    :        0.000000000000 Eh       

---------------
SCF CONVERGENCE
---------------

  Last Energy change         ...   -8.1947e-09  Tolerance :   1.0000e-08
  Last MAX-Density change    ...    9.9123e-06  Tolerance :   1.0000e-07
  Last RMS-Density change    ...    1.7387e-07  Tolerance :   5.0000e-09
  Last Orbital Gradient      ...    1.3697e-06  Tolerance :   1.0000e-05
  Last Orbital Rotation      ...    4.7005e-06  Tolerance :   1.0000e-05

             **** THE GBW FILE WAS UPDATED (09_H2O_6_prism.gbw) ****
             **** DENSITY FILE WAS UPDATED (09_H2O_6_prism.scfp) ****
             **** ENERGY FILE WAS UPDATED (09_H2O_6_prism.en.tmp) ****
             **** THE GBW FILE WAS UPDATED (09_H2O_6_prism.gbw) ****
             **** DENSITY FILE WAS UPDATED (09_H2O_6_prism.scfp) ****
----------------
ORBITAL ENERGIES
----------------

  NO   OCC          E(Eh)            E(eV) 
   0   2.0000     -19.074180      -519.0348 
   1   2.0000     -19.069544      -518.9087 
   2   2.0000     -19.058912      -518.6194 
   3   2.0000     -19.057676      -518.5857 
   4   2.0000     -19.046648      -518.2856 
   5   2.0000     -19.038519      -518.0644 
   6   2.0000      -1.016813       -27.6689 
   7   2.0000      -1.004630       -27.3374 
   8   2.0000      -1.000506       -27.2251 
   9   2.0000      -0.991630       -26.9836 
  10   2.0000      -0.982959       -26.7477 
  11   2.0000      -0.971948       -26.4480 
  12   2.0000      -0.541794       -14.7430 
  13   2.0000      -0.526588       -14.3292 
  14   2.0000      -0.520965       -14.1762 
  15   2.0000      -0.507936       -13.8216 
  16   2.0000      -0.497237       -13.5305 
  17   2.0000      -0.494391       -13.4531 
  18   2.0000      -0.415346       -11.3021 
  19   2.0000      -0.409156       -11.1337 
  20   2.0000      -0.386992       -10.5306 
  21   2.0000      -0.379225       -10.3192 
  22   2.0000      -0.367813       -10.0087 
  23   2.0000      -0.346423        -9.4267 
  24   2.0000      -0.317262        -8.6331 
  25   2.0000      -0.314583        -8.5602 
  26   2.0000      -0.303912        -8.2699 
  27   2.0000      -0.301607        -8.2071 
  28   2.0000      -0.294666        -8.0183 
  29   2.0000      -0.278374        -7.5749 
  30   0.0000      -0.031085        -0.8459 
  31   0.0000      -0.009025        -0.2456 
  32   0.0000      -0.003071        -0.0836 
  33   0.0000       0.018297         0.4979 
  34   0.0000       0.027095         0.7373 
  35   0.0000       0.031256         0.8505 
  36   0.0000       0.040639         1.1058 
  37   0.0000       0.042748         1.1632 
  38   0.0000       0.044646         1.2149 
  39   0.0000       0.055055         1.4981 
  40   0.0000       0.065339         1.7780 
  41   0.0000       0.066271         1.8033 
  42   0.0000       0.079933         2.1751 
  43   0.0000       0.085028         2.3137 
  44   0.0000       0.088338         2.4038 
  45   0.0000       0.107020         2.9122 
  46   0.0000       0.113979         3.1015 
  47   0.0000       0.114325         3.1109 
  48   0.0000       0.117551         3.1987 
  49   0.0000       0.120596         3.2816 
  50   0.0000       0.130777         3.5586 
  51   0.0000       0.131735         3.5847 
  52   0.0000       0.140936         3.8351 
  53   0.0000       0.146334         3.9820 
  54   0.0000       0.148548         4.0422 
  55   0.0000       0.159752         4.3471 
  56   0.0000       0.162381         4.4186 
  57   0.0000       0.164582         4.4785 
  58   0.0000       0.166616         4.5339 
  59   0.0000       0.170643         4.6434 
  60   0.0000       0.176697         4.8082 
  61   0.0000       0.178350         4.8531 
  62   0.0000       0.181107         4.9282 
  63   0.0000       0.185738         5.0542 
  64   0.0000       0.190034         5.1711 
  65   0.0000       0.199753         5.4356 
  66   0.0000       0.203460         5.5364 
  67   0.0000       0.209690         5.7060 
  68   0.0000       0.219897         5.9837 
  69   0.0000       0.228366         6.2142 
  70   0.0000       0.230783         6.2799 
  71   0.0000       0.242847         6.6082 
  72   0.0000       0.251023         6.8307 
  73   0.0000       0.259969         7.0741 
  74   0.0000       0.269508         7.3337 
  75   0.0000       0.280071         7.6211 
  76   0.0000       0.284952         7.7539 
  77   0.0000       0.298877         8.1329 
  78   0.0000       0.308530         8.3955 
  79   0.0000       0.310629         8.4527 
  80   0.0000       0.316868         8.6224 
  81   0.0000       0.322397         8.7729 
  82   0.0000       0.324292         8.8244 
  83   0.0000       0.325801         8.8655 
  84   0.0000       0.334875         9.1124 
  85   0.0000       0.337685         9.1889 
  86   0.0000       0.343089         9.3359 
  87   0.0000       0.347736         9.4624 
  88   0.0000       0.353521         9.6198 
  89   0.0000       0.354965         9.6591 
  90   0.0000       0.356575         9.7029 
  91   0.0000       0.365738         9.9522 
  92   0.0000       0.372582        10.1385 
  93   0.0000       0.375772        10.2253 
  94   0.0000       0.385748        10.4967 
  95   0.0000       0.389532        10.5997 
  96   0.0000       0.395463        10.7611 
  97   0.0000       0.401446        10.9239 
  98   0.0000       0.409955        11.1554 
  99   0.0000       0.413544        11.2531 
 100   0.0000       0.415444        11.3048 
 101   0.0000       0.423710        11.5297 
 102   0.0000       0.428229        11.6527 
 103   0.0000       0.429436        11.6856 
 104   0.0000       0.436823        11.8866 
 105   0.0000       0.452684        12.3181 
 106   0.0000       0.456843        12.4313 
 107   0.0000       0.462126        12.5751 
 108   0.0000       0.466785        12.7019 
 109   0.0000       0.484125        13.1737 
 110   0.0000       0.491349        13.3703 
 111   0.0000       0.494223        13.4485 
 112   0.0000       0.512179        13.9371 
 113   0.0000       0.516963        14.0673 
 114   0.0000       0.527323        14.3492 
 115   0.0000       0.534543        14.5457 
 116   0.0000       0.546227        14.8636 
 117   0.0000       0.567265        15.4361 
 118   0.0000       0.575006        15.6467 
 119   0.0000       0.585708        15.9379 
 120   0.0000       0.600166        16.3313 
 121   0.0000       0.603454        16.4208 
 122   0.0000       0.616561        16.7775 
 123   0.0000       0.630728        17.1630 
 124   0.0000       0.633627        17.2419 
 125   0.0000       0.637884        17.3577 
 126   0.0000       0.653649        17.7867 
 127   0.0000       0.660972        17.9860 
 128   0.0000       0.663417        18.0525 
 129   0.0000       0.670537        18.2462 
 130   0.0000       0.672616        18.3028 
 131   0.0000       0.679972        18.5030 
 132   0.0000       0.689870        18.7723 
 133   0.0000       0.707317        19.2471 
 134   0.0000       0.711078        19.3494 
 135   0.0000       0.717805        19.5325 
 136   0.0000       0.730551        19.8793 
 137   0.0000       0.734500        19.9868 
 138   0.0000       0.748306        20.3624 
 139   0.0000       0.752388        20.4735 
 140   0.0000       0.757731        20.6189 
 141   0.0000       0.764876        20.8133 
 142   0.0000       0.778638        21.1878 
 143   0.0000       0.781379        21.2624 
 144   0.0000       0.791173        21.5289 
 145   0.0000       0.795202        21.6386 
 146   0.0000       0.805105        21.9080 
 147   0.0000       0.808693        22.0057 
 148   0.0000       0.814780        22.1713 
 149   0.0000       0.830518        22.5995 
 150   0.0000       0.836307        22.7571 
 151   0.0000       0.843116        22.9423 
 152   0.0000       0.852885        23.2082 
 153   0.0000       0.858202        23.3529 
 154   0.0000       0.861761        23.4497 
 155   0.0000       0.869696        23.6656 
 156   0.0000       0.872727        23.7481 
 157   0.0000       0.883343        24.0370 
 158   0.0000       0.893359        24.3095 
 159   0.0000       0.904257        24.6061 
 160   0.0000       0.904991        24.6261 
 161   0.0000       0.918081        24.9823 
 162   0.0000       0.920326        25.0433 
 163   0.0000       0.938329        25.5332 
 164   0.0000       0.939956        25.5775 
 165   0.0000       0.952421        25.9167 
 166   0.0000       0.965487        26.2722 
 167   0.0000       0.969592        26.3839 
 168   0.0000       0.972227        26.4556 
 169   0.0000       0.980858        26.6905 
 170   0.0000       0.984776        26.7971 
 171   0.0000       0.994794        27.0697 
 172   0.0000       0.999878        27.2081 
 173   0.0000       1.001690        27.2574 
 174   0.0000       1.011139        27.5145 
 175   0.0000       1.012730        27.5578 
 176   0.0000       1.017196        27.6793 
 177   0.0000       1.030041        28.0288 
 178   0.0000       1.038727        28.2652 
 179   0.0000       1.048444        28.5296 
 180   0.0000       1.058336        28.7988 
 181   0.0000       1.060098        28.8467 
 182   0.0000       1.064346        28.9623 
 183   0.0000       1.071078        29.1455 
 184   0.0000       1.082344        29.4521 
 185   0.0000       1.093195        29.7474 
 186   0.0000       1.104295        30.0494 
 187   0.0000       1.108890        30.1744 
 188   0.0000       1.120934        30.5022 
 189   0.0000       1.128551        30.7094 
 190   0.0000       1.132865        30.8268 
 191   0.0000       1.137595        30.9555 
 192   0.0000       1.154324        31.4108 
 193   0.0000       1.161437        31.6043 
 194   0.0000       1.177483        32.0409 
 195   0.0000       1.180549        32.1244 
 196   0.0000       1.189725        32.3741 
 197   0.0000       1.196481        32.5579 
 198   0.0000       1.205703        32.8088 
 199   0.0000       1.217917        33.1412 
 200   0.0000       1.219293        33.1787 
 201   0.0000       1.238987        33.7146 
 202   0.0000       1.247808        33.9546 
 203   0.0000       1.259563        34.2744 
 204   0.0000       1.262756        34.3613 
 205   0.0000       1.277874        34.7727 
 206   0.0000       1.289193        35.0807 
 207   0.0000       1.295608        35.2553 
 208   0.0000       1.299836        35.3703 
 209   0.0000       1.309877        35.6436 
 210   0.0000       1.320718        35.9386 
 211   0.0000       1.335859        36.3506 
 212   0.0000       1.352300        36.7979 
 213   0.0000       1.357787        36.9473 
 214   0.0000       1.366638        37.1881 
 215   0.0000       1.377447        37.4822 
 216   0.0000       1.378616        37.5140 
 217   0.0000       1.389905        37.8212 
 218   0.0000       1.410964        38.3943 
 219   0.0000       1.415985        38.5309 
 220   0.0000       1.419046        38.6142 
 221   0.0000       1.428506        38.8716 
 222   0.0000       1.442729        39.2587 
 223   0.0000       1.454749        39.5857 
 224   0.0000       1.471199        40.0334 
 225   0.0000       1.476375        40.1742 
 226   0.0000       1.491598        40.5884 
 227   0.0000       1.501931        40.8696 
 228   0.0000       1.513441        41.1828 
 229   0.0000       1.519854        41.3573 
 230   0.0000       1.527377        41.5620 
 231   0.0000       1.542276        41.9675 
 232   0.0000       1.553377        42.2695 
 233   0.0000       1.559348        42.4320 
 234   0.0000       1.590654        43.2839 
 235   0.0000       1.599959        43.5371 
 236   0.0000       1.613390        43.9026 
 237   0.0000       1.614061        43.9208 
 238   0.0000       1.625386        44.2290 
 239   0.0000       1.633663        44.4542 
 240   0.0000       1.655438        45.0468 
 241   0.0000       1.661560        45.2134 
 242   0.0000       1.680016        45.7156 
 243   0.0000       1.685758        45.8718 
 244   0.0000       1.705802        46.4172 
 245   0.0000       1.715532        46.6820 
 246   0.0000       1.722277        46.8655 
 247   0.0000       1.727079        46.9962 
 248   0.0000       1.743322        47.4382 
 249   0.0000       1.749428        47.6044 
 250   0.0000       1.768927        48.1350 
 251   0.0000       1.783044        48.5191 
 252   0.0000       1.791163        48.7400 
 253   0.0000       1.797600        48.9152 
 254   0.0000       1.816742        49.4361 
 255   0.0000       1.821560        49.5672 
 256   0.0000       1.855446        50.4892 
 257   0.0000       1.867862        50.8271 
 258   0.0000       1.880215        51.1633 
 259   0.0000       1.904482        51.8236 
 260   0.0000       1.926767        52.4300 
 261   0.0000       1.935037        52.6550 
 262   0.0000       1.942203        52.8500 
 263   0.0000       1.969359        53.5890 
 264   0.0000       1.980307        53.8869 
 265   0.0000       2.002345        54.4866 
 266   0.0000       2.007220        54.6192 
 267   0.0000       2.051272        55.8179 
 268   0.0000       2.065089        56.1939 
 269   0.0000       2.079739        56.5926 
 270   0.0000       2.091097        56.9017 
 271   0.0000       2.124910        57.8217 
 272   0.0000       2.132646        58.0322 
 273   0.0000       2.161481        58.8169 
 274   0.0000       2.164609        58.9020 
 275   0.0000       2.176032        59.2129 
 276   0.0000       2.192959        59.6734 
 277   0.0000       2.209664        60.1280 
 278   0.0000       2.220069        60.4112 
 279   0.0000       2.226571        60.5881 
 280   0.0000       2.238835        60.9218 
 281   0.0000       2.247331        61.1530 
 282   0.0000       2.258865        61.4668 
 283   0.0000       2.269191        61.7478 
 284   0.0000       2.280926        62.0671 
 285   0.0000       2.294256        62.4299 
 286   0.0000       2.304306        62.7034 
 287   0.0000       2.307639        62.7941 
 288   0.0000       2.327331        63.3299 
 289   0.0000       2.339354        63.6571 
 290   0.0000       2.367111        64.4124 
 291   0.0000       2.370165        64.4955 
 292   0.0000       2.380094        64.7656 
 293   0.0000       2.396195        65.2038 
 294   0.0000       2.408887        65.5492 
 295   0.0000       2.423556        65.9483 
 296   0.0000       2.434191        66.2377 
 297   0.0000       2.440257        66.4028 
 298   0.0000       2.448301        66.6216 
 299   0.0000       2.463335        67.0307 
 300   0.0000       2.475410        67.3593 
 301   0.0000       2.483175        67.5706 
 302   0.0000       2.486442        67.6595 
 303   0.0000       2.499179        68.0061 
 304   0.0000       2.513870        68.4059 
 305   0.0000       2.527620        68.7800 
 306   0.0000       2.532875        68.9230 
 307   0.0000       2.540685        69.1356 
 308   0.0000       2.547242        69.3140 
 309   0.0000       2.555205        69.5307 
 310   0.0000       2.577207        70.1294 
 311   0.0000       2.586434        70.3804 
 312   0.0000       2.593603        70.5755 
 313   0.0000       2.600866        70.7732 
 314   0.0000       2.618871        71.2631 
 315   0.0000       2.627014        71.4847 
 316   0.0000       2.648682        72.0743 
 317   0.0000       2.664043        72.4923 
 318   0.0000       2.665576        72.5340 
 319   0.0000       2.680802        72.9483 
 320   0.0000       2.689651        73.1891 
 321   0.0000       2.696492        73.3753 
 322   0.0000       2.713476        73.8374 
 323   0.0000       2.722926        74.0946 
 324   0.0000       2.727843        74.2284 
 325   0.0000       2.747382        74.7601 
 326   0.0000       2.757894        75.0461 
 327   0.0000       2.763205        75.1906 
 328   0.0000       2.770540        75.3902 
 329   0.0000       2.791493        75.9604 
 330   0.0000       2.805939        76.3535 
 331   0.0000       2.821266        76.7705 
 332   0.0000       2.846090        77.4461 
 333   0.0000       2.856821        77.7381 
 334   0.0000       2.869549        78.0844 
 335   0.0000       2.875507        78.2465 
 336   0.0000       2.892014        78.6957 
 337   0.0000       2.907687        79.1222 
 338   0.0000       2.926714        79.6400 
 339   0.0000       2.942382        80.0663 
 340   0.0000       2.958931        80.5166 
 341   0.0000       2.980197        81.0953 
 342   0.0000       2.989530        81.3492 
 343   0.0000       3.010776        81.9274 
 344   0.0000       3.022577        82.2485 
 345   0.0000       3.029260        82.4304 
 346   0.0000       3.057901        83.2097 
 347   0.0000       3.120687        84.9182 
 348   0.0000       3.628023        98.7235 
 349   0.0000       3.658979        99.5659 
 350   0.0000       3.697102       100.6033 
 351   0.0000       3.719519       101.2133 
 352   0.0000       3.777389       102.7880 
 353   0.0000       3.782721       102.9331 
 354   0.0000       3.819038       103.9213 
 355   0.0000       3.852180       104.8231 
 356   0.0000       3.867509       105.2403 
 357   0.0000       3.880065       105.5819 
 358   0.0000       3.892862       105.9302 
 359   0.0000       3.903450       106.2183 
 360   0.0000       3.924912       106.8023 
 361   0.0000       3.942754       107.2878 
 362   0.0000       3.949333       107.4668 
 363   0.0000       3.955642       107.6385 
 364   0.0000       3.968112       107.9778 
 365   0.0000       3.983774       108.4040 
 366   0.0000       4.006045       109.0100 
 367   0.0000       4.035150       109.8020 
 368   0.0000       4.046287       110.1051 
 369   0.0000       4.064908       110.6118 
 370   0.0000       4.073893       110.8563 
 371   0.0000       4.079816       111.0174 
 372   0.0000       4.096439       111.4698 
 373   0.0000       4.097812       111.5071 
 374   0.0000       4.109757       111.8322 
 375   0.0000       4.126667       112.2923 
 376   0.0000       4.129123       112.3591 
 377   0.0000       4.139715       112.6474 
 378   0.0000       4.157051       113.1191 
 379   0.0000       4.165838       113.3582 
 380   0.0000       4.169375       113.4545 
 381   0.0000       4.183024       113.8259 
 382   0.0000       4.195636       114.1691 
 383   0.0000       4.207469       114.4910 
 384   0.0000       4.233167       115.1903 
 385   0.0000       4.246916       115.5645 
 386   0.0000       4.251173       115.6803 
 387   0.0000       4.265693       116.0754 
 388   0.0000       4.284768       116.5945 
 389   0.0000       4.306313       117.1807 
 390   0.0000       4.312319       117.3442 
 391   0.0000       4.317312       117.4800 
 392   0.0000       4.350772       118.3905 
 393   0.0000       4.360292       118.6496 
 394   0.0000       4.367663       118.8501 
 395   0.0000       4.370325       118.9226 
 396   0.0000       4.391381       119.4956 
 397   0.0000       4.403074       119.8137 
 398   0.0000       4.420935       120.2998 
 399   0.0000       4.430453       120.5588 
 400   0.0000       4.441465       120.8584 
 401   0.0000       4.455455       121.2391 
 402   0.0000       4.463742       121.4646 
 403   0.0000       4.477764       121.8462 
 404   0.0000       4.492707       122.2528 
 405   0.0000       4.495804       122.3370 
 406   0.0000       4.510146       122.7273 
 407   0.0000       4.520819       123.0177 
 408   0.0000       4.552422       123.8777 
 409   0.0000       4.569893       124.3531 
 410   0.0000       4.583349       124.7193 
 411   0.0000       4.611245       125.4784 
 412   0.0000       4.623601       125.8146 
 413   0.0000       4.631342       126.0252 
 414   0.0000       4.649461       126.5183 
 415   0.0000       4.670462       127.0897 
 416   0.0000       4.710173       128.1703 
 417   0.0000       4.717078       128.3582 
 418   0.0000       4.724588       128.5626 
 419   0.0000       4.750208       129.2597 
 420   0.0000       4.789052       130.3167 
 421   0.0000       4.806669       130.7961 
 422   0.0000       4.824254       131.2746 
 423   0.0000       4.843406       131.7958 
 424   0.0000       4.879725       132.7841 
 425   0.0000       4.886442       132.9669 
 426   0.0000       4.927416       134.0818 
 427   0.0000       4.946033       134.5884 
 428   0.0000       4.958789       134.9355 
 429   0.0000       4.972831       135.3176 
 430   0.0000       4.979096       135.4881 
 431   0.0000       5.009024       136.3025 
 432   0.0000       5.020618       136.6180 
 433   0.0000       5.031438       136.9124 
 434   0.0000       5.047357       137.3456 
 435   0.0000       5.064710       137.8178 
 436   0.0000       5.071360       137.9987 
 437   0.0000       5.077974       138.1787 
 438   0.0000       5.094964       138.6410 
 439   0.0000       5.103606       138.8762 
 440   0.0000       5.118416       139.2792 
 441   0.0000       5.124972       139.4576 
 442   0.0000       5.131356       139.6313 
 443   0.0000       5.150549       140.1536 
 444   0.0000       5.171645       140.7276 
 445   0.0000       5.184307       141.0722 
 446   0.0000       5.194907       141.3606 
 447   0.0000       5.216311       141.9430 
 448   0.0000       5.226900       142.2312 
 449   0.0000       5.267380       143.3327 
 450   0.0000       5.319456       144.7498 
 451   0.0000       5.352535       145.6499 
 452   0.0000       5.355723       145.7366 
 453   0.0000       5.406025       147.1054 
 454   0.0000       5.467450       148.7769 
 455   0.0000       5.514227       150.0497 
 456   0.0000       5.554438       151.1440 
 457   0.0000       5.571939       151.6202 
 458   0.0000       5.607394       152.5850 
 459   0.0000       5.673936       154.3956 
 460   0.0000       5.685075       154.6987 
 461   0.0000       5.709904       155.3744 
 462   0.0000       5.976369       162.6253 
 463   0.0000       6.011926       163.5928 
 464   0.0000       6.073014       165.2551 
 465   0.0000       6.122760       166.6088 
 466   0.0000       6.132446       166.8723 
 467   0.0000       6.180681       168.1849 
 468   0.0000       6.204841       168.8423 
 469   0.0000       6.216598       169.1622 
 470   0.0000       6.248891       170.0410 
 471   0.0000       6.263780       170.4461 
 472   0.0000       6.265378       170.4896 
 473   0.0000       6.336994       172.4384 
 474   0.0000       6.487764       176.5410 
 475   0.0000       6.498678       176.8380 
 476   0.0000       6.524177       177.5319 
 477   0.0000       6.530089       177.6927 
 478   0.0000       6.568200       178.7298 
 479   0.0000       6.591836       179.3730 
 480   0.0000       6.614009       179.9763 
 481   0.0000       6.638145       180.6331 
 482   0.0000       6.651882       181.0069 
 483   0.0000       6.697732       182.2546 
 484   0.0000       6.714601       182.7136 
 485   0.0000       6.730657       183.1505 
 486   0.0000       6.799111       185.0132 
 487   0.0000       6.811562       185.3520 
 488   0.0000       6.834227       185.9688 
 489   0.0000       6.843428       186.2192 
 490   0.0000       6.865957       186.8322 
 491   0.0000       6.872387       187.0072 
 492   0.0000       6.892002       187.5409 
 493   0.0000       6.894895       187.6196 
 494   0.0000       6.911475       188.0708 
 495   0.0000       6.932899       188.6538 
 496   0.0000       6.945243       188.9897 
 497   0.0000       6.951804       189.1682 
 498   0.0000       6.958925       189.3620 
 499   0.0000       6.972015       189.7182 
 500   0.0000       6.986007       190.0989 
 501   0.0000       6.994220       190.3224 
 502   0.0000       6.999103       190.4553 
 503   0.0000       7.012459       190.8187 
 504   0.0000       7.019187       191.0018 
 505   0.0000       7.034546       191.4197 
 506   0.0000       7.048003       191.7859 
 507   0.0000       7.054501       191.9627 
 508   0.0000       7.063257       192.2010 
 509   0.0000       7.067949       192.3287 
 510   0.0000       7.079914       192.6543 
 511   0.0000       7.099930       193.1989 
 512   0.0000       7.109026       193.4464 
 513   0.0000       7.126100       193.9110 
[...]
      1       0.028095   0.001986  -0.003829   0.000815  -0.000296  -0.001023
      2      -0.008725  -0.000526   0.001693  -0.000349   0.000128  -0.001290
      3       0.870212   0.053854  -0.139701   0.061759  -0.010012  -0.042500
      4      -0.428936  -0.025413   0.062356  -0.027731   0.004864   0.017807
      5       0.126580   0.005393  -0.011272   0.001944  -0.000388  -0.001217
      6      -0.038468  -0.002356   0.009885  -0.000580  -0.000487  -0.011436
      7      -0.009428   0.001152   0.002103   0.001098  -0.000988  -0.009819
      8       0.042286   0.001966  -0.008047  -0.015124   0.000646   0.018160
      9       0.000610   0.000210   0.001629  -0.012100  -0.000202   0.002034
     10       0.001133   0.000796   0.001637  -0.008745   0.000064   0.001501
     11      -0.006265  -0.002116  -0.008580   0.056699   0.004967  -0.005886
     12      -0.016195  -0.005291  -0.019334   0.116966   0.004666  -0.011745
     13      -0.015835  -0.008643  -0.017580   0.104484   0.007962  -0.013387
     14       0.087603   0.035519   0.142372  -0.949229  -0.075900   0.113122
     15      -0.003281  -0.001732  -0.014585   0.086851  -0.007672  -0.019047
     16      -0.002206  -0.000409  -0.006795   0.041801  -0.001838  -0.009276
     17      -0.003986  -0.001954  -0.010270   0.070469   0.000278  -0.013817
     18       0.000282  -0.001665  -0.000053   0.001773   0.001509   0.024694
     19       0.001537  -0.004534  -0.000112   0.003253   0.002536   0.035194
     20      -0.002454   0.001760   0.000248  -0.007787  -0.005726  -0.036160
     21      -0.012599   0.031935  -0.000573  -0.043019  -0.034131  -0.330695
     22      -0.015247   0.041338   0.001759  -0.059403  -0.049831  -0.497939
     23       0.039340  -0.066553  -0.003460   0.093661   0.071528   0.753455
     24       0.003238   0.021446   0.000428   0.015153   0.009170  -0.064424
     25       0.004054   0.014171  -0.000548   0.010753   0.008176  -0.052710
     26      -0.005300   0.039123   0.000166   0.026287   0.018023  -0.181089
     27       0.001430   0.000736   0.000434  -0.000226   0.002387  -0.000572
     28       0.000314   0.002326   0.020235   0.003757   0.000738  -0.001439
     29       0.008317   0.002885   0.055284   0.009554  -0.007100  -0.000443
     30       0.003219   0.002765  -0.007762  -0.000736   0.002105  -0.001092
     31      -0.056028  -0.013295  -0.359141  -0.059538   0.040260   0.001415
     32      -0.122085  -0.042731  -0.893760  -0.155276   0.118827   0.006399
     33       0.028363  -0.014718   0.012272   0.001032  -0.038661   0.014341
     34       0.027250  -0.018900   0.030548   0.001738  -0.053357   0.019398
     35       0.006184  -0.004926   0.033946   0.004073  -0.002931   0.000988
     36       0.001557   0.004126   0.003378  -0.005873   0.036559  -0.002706
     37      -0.001196   0.001940  -0.006032   0.000241  -0.035804   0.003171
     38      -0.001022   0.000607  -0.000269  -0.001321   0.009426  -0.000765
     39      -0.029251  -0.034682  -0.101267   0.076692  -0.829673   0.065303
     40       0.008285   0.011953   0.026975  -0.023505   0.221684  -0.018488
     41      -0.010195  -0.010206  -0.028721   0.020274  -0.194911   0.015445
     42       0.008895  -0.026052   0.051291   0.009975   0.258367  -0.022450
     43       0.008061  -0.039436   0.071864   0.020071   0.343868  -0.032086
     44       0.005378   0.001913   0.003167  -0.000793   0.035715  -0.003424
     45       0.003877  -0.051328   0.001871  -0.001810  -0.000472  -0.003688
     46      -0.002040   0.032877  -0.001410   0.001305  -0.000387   0.003393
     47      -0.000326   0.000700   0.000576   0.000263   0.000072  -0.000131
     48      -0.054482   0.859505  -0.034382   0.032803   0.001786   0.080987
     49       0.034371  -0.477665   0.019611  -0.017292   0.001281  -0.038585
     50       0.001523  -0.020674  -0.001460  -0.002742   0.001039  -0.001845
     51       0.003863  -0.077329   0.004220  -0.003800   0.003421  -0.017965
     52       0.003728  -0.046584   0.002367  -0.002425   0.004052  -0.013858
     53      -0.001077   0.010582   0.000364   0.000814   0.000036   0.002917
                 48         49         50         51         52         53    
      0       0.000571   0.000960   0.000960  -0.030267  -0.023195   0.000267
      1      -0.000336  -0.000976  -0.000382  -0.011268  -0.008912  -0.000009
      2       0.000384   0.000768  -0.000707   0.036733   0.029114  -0.000239
      3      -0.012297  -0.027070  -0.011970   0.021746   0.008717  -0.001433
      4       0.004338   0.009789   0.006100  -0.023086  -0.014695   0.000914
      5      -0.001105   0.000086  -0.000512   0.022736   0.017775  -0.000275
      6       0.002060   0.008897  -0.007006   0.454407   0.357366  -0.003238
      7       0.000621   0.003775  -0.005029   0.202149   0.158626  -0.001384
      8      -0.003018  -0.011022   0.011062  -0.606257  -0.475193   0.004409
      9      -0.000457  -0.000065  -0.000265   0.029231  -0.036943  -0.000902
     10       0.000144  -0.000182   0.000272   0.014506  -0.018209  -0.000486
     11       0.003290   0.000282  -0.003868   0.020748  -0.028271  -0.000718
     12       0.004384  -0.000033  -0.003717   0.022892  -0.032645  -0.000645
     13       0.004235   0.000820  -0.003726   0.013210  -0.021705  -0.000150
     14      -0.052537  -0.006163   0.060312  -0.043753   0.084125   0.002417
     15      -0.004854   0.001966   0.009226  -0.485849   0.617194   0.014854
     16      -0.001110   0.000956   0.006220  -0.243809   0.310015   0.007488
     17       0.000807   0.001360   0.002405  -0.283706   0.360561   0.008649
     18      -0.000959  -0.000002  -0.020359  -0.000216   0.000744  -0.000920
     19      -0.000948  -0.000230  -0.016903   0.000021   0.000959  -0.000741
     20      -0.003872   0.002852  -0.057845  -0.001641  -0.000644  -0.000349
     21      -0.007279   0.010446  -0.078681  -0.004983  -0.008153   0.003499
     22      -0.009247   0.016162  -0.110502  -0.007489  -0.012571   0.006011
     23       0.008764  -0.020057   0.114253   0.011371   0.018679  -0.009723
     24       0.024908  -0.012274   0.404055   0.008543  -0.004173   0.007303
     25       0.021794  -0.011331   0.378625   0.007671  -0.003144   0.006779
     26       0.052211  -0.024520   0.803952   0.015004  -0.008151   0.015544
     27      -0.005612  -0.034820  -0.000864   0.000434   0.000544  -0.000811
     28      -0.007356  -0.049088  -0.001584   0.000287   0.000289  -0.001188
     29       0.001623  -0.002365  -0.000509  -0.000291  -0.000334  -0.000086
     30      -0.003824  -0.019882  -0.000505   0.000621   0.000172  -0.000725
     31      -0.013410  -0.013899   0.002356   0.001619   0.001885  -0.000354
     32      -0.029883   0.039030   0.008702   0.004087   0.004975   0.001433
     33       0.094296   0.576527   0.015434  -0.004756  -0.005325   0.013896
     34       0.129069   0.793333   0.022279  -0.007094  -0.007589   0.019557
     35       0.003060  -0.001989  -0.000309  -0.000060   0.000103   0.000287
     36       0.054945  -0.006117  -0.004869  -0.000820   0.000920  -0.000710
     37       0.038019  -0.008117  -0.001275   0.000062  -0.000044  -0.001029
     38       0.010239  -0.000491  -0.001067  -0.000233   0.000114  -0.000098
     39      -0.391887   0.006915   0.055908   0.012270  -0.013104   0.000577
     40       0.141197  -0.007550  -0.017416  -0.002827   0.002838  -0.000443
     41      -0.094958   0.001703   0.013177   0.002739  -0.002634   0.000241
     42      -0.472862   0.090436   0.022340   0.000886  -0.001003   0.010885
     43      -0.740826   0.138823   0.037320   0.002309  -0.002644   0.017363
     44      -0.057462   0.010649   0.003627   0.000232   0.000107   0.000656
     45       0.003413  -0.003165   0.000353   0.000745  -0.000491   0.048760
     46      -0.001288  -0.000172  -0.001445   0.000666  -0.000387   0.038379
     47      -0.000681  -0.000077   0.000066  -0.000143   0.000066  -0.007610
     48      -0.051855   0.034202  -0.022620   0.000171   0.000403  -0.046548
     49       0.023867  -0.015321   0.008981   0.000396  -0.000743   0.060476
     50       0.000671  -0.000757   0.000351  -0.000023   0.000263  -0.002489
     51      -0.004576   0.015668   0.015033  -0.011792   0.007802  -0.723519
     52      -0.008682   0.017155   0.013154  -0.010893   0.007209  -0.670598
     53      -0.000877  -0.003693  -0.002334   0.001925  -0.001320   0.123281


-----------
IR SPECTRUM  
-----------

 Mode    freq (cm**-1)   T**2         TX         TY         TZ
-------------------------------------------------------------------
   6:        50.96    0.061054  (  0.205468   0.089945  -0.103666)
   7:        64.02    1.640733  ( -0.972041  -0.279524  -0.785961)
   8:        73.28    1.484057  ( -0.295055  -0.089516   1.178553)
   9:        82.49    0.325131  ( -0.119350   0.379075  -0.408887)
  10:        90.51    1.203937  (  0.034864   0.033835  -1.096164)
  11:       143.73    1.187355  ( -0.734992   0.788944   0.157192)
  12:       172.05   10.077155  (  1.658734   2.119935   1.682745)
  13:       181.95    1.341890  ( -0.952485   0.591942  -0.290288)
  14:       225.01    2.288314  (  0.757641  -0.520625   1.201351)
  15:       233.04   34.706238  ( -4.474954   2.549247  -2.860483)
  16:       254.49   52.350097  (  4.948753  -3.055395  -4.304010)
  17:       257.09   32.417178  (  0.453488  -2.911704   4.871705)
  18:       270.97   42.029607  (  0.296304   1.847308   6.207195)
  19:       298.14   47.621301  ( -1.364155  -6.763481   0.125303)
  20:       318.09   25.565287  ( -4.872871   1.346761   0.081543)
  21:       383.46   47.842225  ( -5.096587   3.743495  -2.802369)
  22:       397.71    6.317631  (  0.223399   2.423621   0.627523)
  23:       457.61   80.082698  (  6.001810  -6.053349  -2.723588)
  24:       459.27   45.565306  (  2.792425  -0.048234   6.145351)
  25:       498.76   60.034932  ( -0.822002   1.137366  -7.620082)
  26:       520.72   34.867847  (  5.830740  -0.551221  -0.752643)
  27:       563.52  193.021089  (-13.619341  -0.492083  -2.700463)
  28:       591.33   45.382806  ( -4.043018  -4.723699  -2.592967)
  29:       660.02  136.526042  (  0.129728   0.453083  11.674927)
  30:       688.52  258.440199  ( -2.673890   6.500244  14.458124)
  31:       733.93  176.856724  ( -7.800571  10.551973   2.159558)
  32:       777.02  181.857417  (  7.341623 -10.300352   4.675548)
  33:       887.69   43.642095  ( -4.386144   4.434898  -2.176124)
  34:       924.99   56.178089  (  3.188470  -3.163640  -6.000261)
  35:      1090.95   51.663263  (  3.069550   4.956840   4.203673)
  36:      1651.72  135.716841  (  7.372131   8.899317   1.473326)
  37:      1667.16   93.962720  ( -1.716631  -6.699612   6.791988)
  38:      1669.83   41.254687  ( -3.589848   3.510845   4.005202)
  39:      1696.48   17.318005  (  3.625976  -2.016576   0.322069)
  40:      1704.60  142.202121  (  3.021189  10.297497  -5.199624)
  41:      1725.07   45.936540  (  2.814306   0.567779  -6.139531)
  42:      2973.54  1069.428431  ( 30.400327 -11.951104  -1.555527)
  43:      3293.69  863.939750  ( 27.902527  -8.977905  -2.187691)
  44:      3358.27  391.722777  ( -6.668317  -0.162452 -18.634107)
  45:      3419.33  613.890775  (  2.400350  -3.542765 -24.404465)
  46:      3579.77  258.387470  (-13.960109   7.606767   2.374853)
  47:      3595.90  307.743076  ( -3.973434 -12.226248  11.936237)
  48:      3645.53  305.524256  (-15.124746  -6.877527  -5.428255)
  49:      3701.64  196.471145  (  7.933662  11.528923  -0.782360)
  50:      3720.92  174.045317  (  4.466940   4.132060  11.705462)
  51:      3830.06   63.415300  (  1.746927  -1.069603  -7.695420)
  52:      3831.15   61.361641  (  7.205143   1.942191   2.382321)
  53:      3833.89   49.078213  ( -6.696576  -1.734708   1.106738)

The first frequency considered to be a vibration is 6
The total number of vibrations considered is 48


--------------------------
THERMOCHEMISTRY AT 298.15K
--------------------------

Temperature         ... 298.15 K
Pressure            ... 1.00 atm
Total Mass          ... 108.09 AMU

Throughout the following assumptions are being made:
  (1) The electronic state is orbitally nondegenerate
  (2) There are no thermally accessible electronically excited states
  (3) Hindered rotations indicated by low frequency modes are not
      treated as such but are treated as vibrations and this may
      cause some error
  (4) All equations used are the standard statistical mechanics
      equations for an ideal gas
  (5) All vibrations are strictly harmonic

freq.      50.96  E(vib)   ...       0.52 
freq.      64.02  E(vib)   ...       0.51 
freq.      73.28  E(vib)   ...       0.49 
freq.      82.49  E(vib)   ...       0.48 
freq.      90.51  E(vib)   ...       0.47 
freq.     143.73  E(vib)   ...       0.41 
freq.     172.05  E(vib)   ...       0.38 
freq.     181.95  E(vib)   ...       0.37 
freq.     225.01  E(vib)   ...       0.33 
freq.     233.04  E(vib)   ...       0.32 
freq.     254.49  E(vib)   ...       0.30 
freq.     257.09  E(vib)   ...       0.30 
freq.     270.97  E(vib)   ...       0.29 
freq.     298.14  E(vib)   ...       0.27 
freq.     318.09  E(vib)   ...       0.25 
freq.     383.46  E(vib)   ...       0.20 
freq.     397.71  E(vib)   ...       0.20 
freq.     457.61  E(vib)   ...       0.16 
freq.     459.27  E(vib)   ...       0.16 
freq.     498.76  E(vib)   ...       0.14 
freq.     520.72  E(vib)   ...       0.13 
freq.     563.52  E(vib)   ...       0.11 
freq.     591.33  E(vib)   ...       0.10 
freq.     660.02  E(vib)   ...       0.08 
freq.     688.52  E(vib)   ...       0.07 
freq.     733.93  E(vib)   ...       0.06 
freq.     777.02  E(vib)   ...       0.05 
freq.     887.69  E(vib)   ...       0.04 
freq.     924.99  E(vib)   ...       0.03 
freq.    1090.95  E(vib)   ...       0.02 
freq.    1651.72  E(vib)   ...       0.00 
freq.    1667.16  E(vib)   ...       0.00 
freq.    1669.83  E(vib)   ...       0.00 
freq.    1696.48  E(vib)   ...       0.00 
freq.    1704.60  E(vib)   ...       0.00 
freq.    1725.07  E(vib)   ...       0.00 
freq.    2973.54  E(vib)   ...       0.00 
freq.    3293.69  E(vib)   ...       0.00 
freq.    3358.27  E(vib)   ...       0.00 
freq.    3419.33  E(vib)   ...       0.00 
freq.    3579.77  E(vib)   ...       0.00 
freq.    3595.90  E(vib)   ...       0.00 
freq.    3645.53  E(vib)   ...       0.00 
freq.    3701.64  E(vib)   ...       0.00 
freq.    3720.92  E(vib)   ...       0.00 
freq.    3830.06  E(vib)   ...       0.00 
freq.    3831.15  E(vib)   ...       0.00 
freq.    3833.89  E(vib)   ...       0.00 

------------
INNER ENERGY
------------

The inner energy is: U= E(el) + E(ZPE) + E(vib) + E(rot) + E(trans)
    E(el)   - is the total energy from the electronic structure calculation
              = E(kin-el) + E(nuc-el) + E(el-el) + E(nuc-nuc)
    E(ZPE)  - the the zero temperature vibrational energy from the frequency calculation
    E(vib)  - the the finite temperature correction to E(ZPE) due to population
              of excited vibrational states
    E(rot)  - is the rotational thermal energy
    E(trans)- is the translational thermal energy

Summary of contributions to the inner energy U:
Electronic energy                ...   -458.82711467 Eh
Zero point energy                ...      0.14865016 Eh      93.28 kcal/mol
Thermal vibrational correction   ...      0.01157433 Eh       7.26 kcal/mol
Thermal rotational correction    ...      0.00141627 Eh       0.89 kcal/mol
Thermal translational correction ...      0.00141627 Eh       0.89 kcal/mol
-----------------------------------------------------------------------
Total thermal energy                   -458.66405763 Eh


Summary of corrections to the electronic energy:
(perhaps to be used in another calculation)
Total thermal correction                  0.01440687 Eh       9.04 kcal/mol
Non-thermal (ZPE) correction              0.14865016 Eh      93.28 kcal/mol
-----------------------------------------------------------------------
Total correction                          0.16305703 Eh     102.32 kcal/mol


--------
ENTHALPY
--------

The enthalpy is H = U + kB*T
                kB is Boltzmann's constant
Total free energy                 ...   -458.66405763 Eh 
Thermal Enthalpy correction       ...      0.00094421 Eh       0.59 kcal/mol
-----------------------------------------------------------------------
Total Enthalpy                    ...   -458.66311342 Eh


Note: Only C1 symmetry has been detected, increase convergence thresholds 
      if your molecule has a higher symmetry. Symmetry factor of 1.0 is   
      used for the rotational entropy correction. 
 

Note: Rotational entropy computed according to Herzberg 
Infrared and Raman Spectra, Chapter V,1, Van Nostrand Reinhold, 1945 
Point Group:  C1, Symmetry Number:   1  
Rotational constants in cm-1:     0.056927     0.049162     0.046162 

Vibrational entropy computed according to the QRRHO of S. Grimme
Chem.Eur.J. 2012 18 9955


-------
ENTROPY
-------

The entropy contributions are T*S = T*(S(el)+S(vib)+S(rot)+S(trans))
     S(el)   - electronic entropy
     S(vib)  - vibrational entropy
     S(rot)  - rotational entropy
     S(trans)- translational entropy
The entropies will be listed as mutliplied by the temperature to get
units of energy

Electronic entropy                ...      0.00000000 Eh      0.00 kcal/mol
Vibrational entropy               ...      0.02053733 Eh     12.89 kcal/mol
Rotational entropy                ...      0.01373801 Eh      8.62 kcal/mol
Translational entropy             ...      0.01898142 Eh     11.91 kcal/mol
-----------------------------------------------------------------------
Final entropy term                ...      0.05325676 Eh     33.42 kcal/mol

In case the symmetry of your molecule has not been determined correctly
or in case you have a reason to use a different symmetry number we print 
out the resulting rotational entropy values for sn=1,12 :
 --------------------------------------------------------
|  sn= 1 | S(rot)=       0.01373801 Eh      8.62 kcal/mol|
|  sn= 2 | S(rot)=       0.01308356 Eh      8.21 kcal/mol|
|  sn= 3 | S(rot)=       0.01270072 Eh      7.97 kcal/mol|
|  sn= 4 | S(rot)=       0.01242910 Eh      7.80 kcal/mol|
|  sn= 5 | S(rot)=       0.01221841 Eh      7.67 kcal/mol|
|  sn= 6 | S(rot)=       0.01204627 Eh      7.56 kcal/mol|
|  sn= 7 | S(rot)=       0.01190072 Eh      7.47 kcal/mol|
|  sn= 8 | S(rot)=       0.01177464 Eh      7.39 kcal/mol|
|  sn= 9 | S(rot)=       0.01166344 Eh      7.32 kcal/mol|
|  sn=10 | S(rot)=       0.01156396 Eh      7.26 kcal/mol|
|  sn=11 | S(rot)=       0.01147397 Eh      7.20 kcal/mol|
|  sn=12 | S(rot)=       0.01139181 Eh      7.15 kcal/mol|
 --------------------------------------------------------


-------------------
GIBBS FREE ENERGY
-------------------

The Gibbs free energy is G = H - T*S

Total enthalpy                    ...   -458.66311342 Eh 
Total entropy correction          ...     -0.05325676 Eh    -33.42 kcal/mol
-----------------------------------------------------------------------
Final Gibbs free energy         ...   -458.71637018 Eh

For completeness - the Gibbs free energy minus the electronic energy
G-E(el)                           ...      0.11074449 Eh     69.49 kcal/mol


Total Time for Numerical Frequencies  :      9914.877 sec

Timings for individual modules:

Sum of individual times         ...     2253.834 sec (=  37.564 min)
GTO integral calculation        ...       21.199 sec (=   0.353 min)   0.9 %
SCF iterations                  ...     1315.001 sec (=  21.917 min)  58.3 %
SCF Gradient evaluation         ...      912.274 sec (=  15.205 min)  40.5 %
Geometry relaxation             ...        5.359 sec (=   0.089 min)   0.2 %
                             ****ORCA TERMINATED NORMALLY****
TOTAL RUN TIME: 0 days 3 hours 21 minutes 55 seconds 88 msec
