
                                 *****************
                                 * O   R   C   A *
                                 *****************

           --- An Ab Initio, DFT and Semiempirical electronic structure package ---

                  #######################################################
                  #                        -***-                        #
                  #          Department of theory and spectroscopy      #
                  #               Directorship: Frank Neese             #
                  #        Max Planck Institute fuer Kohlenforschung    #
                  #                Kaiser Wilhelm Platz 1               #
                  #                 D-45470 Muelheim/Ruhr               #
                  #                      Germany                        #
                  #                                                     #
                  #                  All rights reserved                #
                  #                        -***-                        #
                  #######################################################


                         Program Version 4.2.0 -  RELEASE  -


 With contributions from (in alphabetic order):
   Daniel Aravena         : Magnetic Suceptibility
   Michael Atanasov       : Ab Initio Ligand Field Theory (pilot matlab implementation)
   Alexander A. Auer      : GIAO ZORA, VPT2
   Ute Becker             : Parallelization
   Giovanni Bistoni       : ED, misc. LED, open-shell LED, HFLED
   Martin Brehm           : Molecular dynamics
   Dmytro Bykov           : SCF Hessian
   Vijay G. Chilkuri      : MRCI spin determinant printing, contributions to CSF-ICE
   Dipayan Datta          : RHF DLPNO-CCSD density
   Achintya Kumar Dutta   : EOM-CC, STEOM-CC
   Dmitry Ganyushin       : Spin-Orbit,Spin-Spin,Magnetic field MRCI
   Miquel Garcia          : C-PCM Hessian, Gaussian charge scheme
   Yang Guo               : DLPNO-NEVPT2, CIM, IAO-localization
   Andreas Hansen         : Spin unrestricted coupled pair/coupled cluster methods
   Benjamin Helmich-Paris : CASSCF linear response (MC-RPA)
   Lee Huntington         : MR-EOM, pCC
   Robert Izsak           : Overlap fitted RIJCOSX, COSX-SCS-MP3, EOM
   Christian Kollmar      : KDIIS, OOCD, Brueckner-CCSD(T), CCSD density
   Simone Kossmann        : Meta GGA functionals, TD-DFT gradient, OOMP2, MP2 Hessian
   Martin Krupicka        : AUTO-CI
   Lucas Lang             : DCDCAS
   Dagmar Lenk            : GEPOL surface, SMD
   Dimitrios Liakos       : Extrapolation schemes; Compound Job, initial MDCI parallelization
   Dimitrios Manganas     : Further ROCIS development; embedding schemes
   Dimitrios Pantazis     : SARC Basis sets
   Taras Petrenko         : DFT Hessian,TD-DFT gradient, ASA, ECA, R-Raman, ABS, FL, XAS/XES, NRVS
   Peter Pinski           : DLPNO-MP2, DLPNO-MP2 Gradient
   Christoph Reimann      : Effective Core Potentials
   Marius Retegan         : Local ZFS, SOC
   Christoph Riplinger    : Optimizer, TS searches, QM/MM, DLPNO-CCSD(T), (RO)-DLPNO pert. Triples
   Tobias Risthaus        : Range-separated hybrids, TD-DFT gradient, RPA, STAB
   Michael Roemelt        : Original ROCIS implementation
   Masaaki Saitow         : Open-shell DLPNO-CCSD energy and density
   Barbara Sandhoefer     : DKH picture change effects
   Avijit Sen             : IP-ROCIS
   Kantharuban Sivalingam : CASSCF convergence, NEVPT2, FIC-MRCI
   Bernardo de Souza      : ESD, SOC TD-DFT
   Georgi Stoychev        : AutoAux, RI-MP2 NMR
   Willem Van den Heuvel  : Paramagnetic NMR
   Boris Wezisla          : Elementary symmetry handling
   Frank Wennmohs         : Technical directorship


 We gratefully acknowledge several colleagues who have allowed us to
 interface, adapt or use parts of their codes:
   Stefan Grimme, W. Hujo, H. Kruse,             : VdW corrections, initial TS optimization,
                  C. Bannwarth                     DFT functionals, gCP, sTDA/sTD-DF
   Ed Valeev, F. Pavosevic, A. Kumar             : LibInt (2-el integral package), F12 methods
   Garnet Chan, S. Sharma, J. Yang, R. Olivares  : DMRG
   Ulf Ekstrom                                   : XCFun DFT Library
   Mihaly Kallay                                 : mrcc  (arbitrary order and MRCC methods)
   Andreas Klamt, Michael Diedenhofen            : otool_cosmo (COSMO solvation model)
   Jiri Pittner, Ondrej Demel                    : Mk-CCSD
   Frank Weinhold                                : gennbo (NPA and NBO analysis)
   Christopher J. Cramer and Donald G. Truhlar   : smd solvation model
   Lars Goerigk                                  : TD-DFT with DH, B97 family of functionals
   V. Asgeirsson, H. Jonsson                     : NEB implementation
   FAccTs GmbH                                   : IRC, NEB, NEB-TS, Multilevel, MM, QM/MM, CI optimization
   S Lehtola, MJT Oliveira, MAL Marques          : LibXC Library


 Your calculation uses the libint2 library for the computation of 2-el integrals
 For citations please refer to: http://libint.valeyev.net

 Your ORCA version has been built with support for libXC version: 4.2.3
 For citations please refer to: https://tddft.org/programs/libxc/

 This ORCA versions uses:
   CBLAS   interface :  Fast vector & matrix operations
   LAPACKE interface :  Fast linear algebra routines
   SCALAPACK package :  Parallel linear algebra routines


Your calculation utilizes the atom-pairwise dispersion correction
with the Becke-Johnson damping scheme (D3BJ)
Cite in your paper:
S.Grimme, S.Ehrlich, L.Goerigk, J Comput Chem, (2011), 32, 1456–1465 
S.Grimme, J.Antony, S.Ehrlich and H.Krieg, J.Chem.Phys., 132, (2010), 154104 
   

----- Orbital basis set information -----
Your calculation utilizes the basis: aug-cc-pV(T+d)Z 
             Al - Ar: T.H. Dunning, Jr., K. A. Peterson and A. K. Wilson, J. Chem. Phys.
                      114, 9244 (2001)

----- AuxJ basis set information -----
Your calculation utilizes the auxiliary basis: def2/J
   F. Weigend, Phys. Chem. Chem. Phys. 8, 1057 (2006).

================================================================================
                                        WARNINGS
                       Please study these warnings very carefully!
================================================================================


WARNING: Geometry Optimization
  ===> : Switching off AutoStart
         For restart on a previous wavefunction, please use MOREAD

WARNING: The SCAN functional is very grid-sensitive!
         Use at least GRID5 and a higher intacc

INFO   : the flag for use of LIBINT has been found!

================================================================================
                                       INPUT FILE
================================================================================
NAME = 01_H2O.in
|  1> #
|  2> # 01_H2O scanfunc/aug-cc-pvt(+d)z
|  3> #
|  4> ! scanfunc d3bj aug-cc-pvt(+d)z def2/j grid4 nofinalgrid opt xyzfile numfreq
|  5> 
|  6> *xyz 0 1
|  7> O	0	0	0.12434822
|  8> H	0	-1.43139324	-0.98674827
|  9> H	0	1.43139324	-0.98674827
| 10> *
| 11> 
| 12> %maxcore 5000
| 13> 
| 14> %pal
| 15> nprocs 24
| 16> end
| 17> 
| 18> 
| 19>                          ****END OF INPUT****
================================================================================

                       *****************************
                       * Geometry Optimization Run *
                       *****************************

Geometry optimization settings:
Update method            Update   .... BFGS
Choice of coordinates    CoordSys .... Z-matrix Internals
Initial Hessian          InHess   .... Almoef's Model

Convergence Tolerances:
Energy Change            TolE     ....  5.0000e-06 Eh
Max. Gradient            TolMAXG  ....  3.0000e-04 Eh/bohr
RMS Gradient             TolRMSG  ....  1.0000e-04 Eh/bohr
Max. Displacement        TolMAXD  ....  4.0000e-03 bohr
RMS Displacement         TolRMSD  ....  2.0000e-03 bohr
Strict Convergence                ....  False
------------------------------------------------------------------------------
                        ORCA OPTIMIZATION COORDINATE SETUP
------------------------------------------------------------------------------

The optimization will be done in new redundant internal coordinates
Making redundant internal coordinates   ...  (new redundants) done
Evaluating the initial hessian          ...  (Almloef) done
Evaluating the coordinates              ...  done
Calculating the B-matrix                .... done
Calculating the G-matrix                .... done
Diagonalizing the G-matrix              .... done
The first mode is                       ....    0
The number of degrees of freedom        ....    3

    -----------------------------------------------------------------
                    Redundant Internal Coordinates


    -----------------------------------------------------------------
         Definition                    Initial Value    Approx d2E/dq
    -----------------------------------------------------------------
      1. B(H   1,O   0)                  1.8120         0.022731   
      2. B(H   2,O   0)                  1.8120         0.022731   
      3. A(H   1,O   0,H   2)          104.3603         0.145455   
    -----------------------------------------------------------------

Number of atoms                         .... 3
Number of degrees of freedom            .... 3

         *************************************************************
         *                GEOMETRY OPTIMIZATION CYCLE   1            *
         *************************************************************
---------------------------------
CARTESIAN COORDINATES (ANGSTROEM)
---------------------------------
  O      0.000000    0.000000    0.124348
  H      0.000000   -1.431393   -0.986748
  H      0.000000    1.431393   -0.986748

----------------------------
CARTESIAN COORDINATES (A.U.)
----------------------------
  NO LB      ZA    FRAG     MASS         X           Y           Z
   0 O     8.0000    0    15.999    0.000000    0.000000    0.234984
   1 H     1.0000    0     1.008    0.000000   -2.704941   -1.864684
   2 H     1.0000    0     1.008    0.000000    2.704941   -1.864684

--------------------------------
INTERNAL COORDINATES (ANGSTROEM)
--------------------------------
 O      0   0   0     0.000000000000     0.00000000     0.00000000
 H      1   0   0     1.812021527910     0.00000000     0.00000000
 H      1   2   0     1.812021527910   104.36032046     0.00000000

---------------------------
INTERNAL COORDINATES (A.U.)
---------------------------
 O      0   0   0     0.000000000000     0.00000000     0.00000000
 H      1   0   0     3.424224436519     0.00000000     0.00000000
 H      1   2   0     3.424224436519   104.36032046     0.00000000

---------------------
BASIS SET INFORMATION
---------------------
There are 2 groups of distinct atoms

 Group   1 Type O   : 19s6p3d2f contracted to 5s4p3d2f pattern {88111/3111/111/11}
 Group   2 Type H   : 6s3p2d contracted to 4s3p2d pattern {3111/111/11}

Atom   0O    basis set group =>   1
Atom   1H    basis set group =>   2
Atom   2H    basis set group =>   2
---------------------------------
AUXILIARY/J BASIS SET INFORMATION
---------------------------------
There are 2 groups of distinct atoms

 Group   1 Type O   : 12s5p4d2f1g contracted to 6s4p3d1f1g pattern {711111/2111/211/2/1}
 Group   2 Type H   : 5s2p1d contracted to 3s1p1d pattern {311/2/1}

Atom   0O    basis set group =>   1
Atom   1H    basis set group =>   2
Atom   2H    basis set group =>   2


           ************************************************************
           *        Program running with 24 parallel MPI-processes    *
           *              working on a common directory               *
           ************************************************************
------------------------------------------------------------------------------
                           ORCA GTO INTEGRAL CALCULATION
                           -- RI-GTO INTEGRALS CHOSEN --
------------------------------------------------------------------------------

                         BASIS SET STATISTICS AND STARTUP INFO

Gaussian basis set:
 # of primitive gaussian shells          ...   52
 # of primitive gaussian functions       ...  116
 # of contracted shells                  ...   32
 # of contracted basis functions         ...   92
 Highest angular momentum                ...    3
 Maximum contraction depth               ...    8
Auxiliary gaussian basis set:
 # of primitive gaussian shells          ...   40
 # of primitive gaussian functions       ...  102
 # of contracted shells                  ...   25
 # of contracted aux-basis functions     ...   71
 Highest angular momentum                ...    4
 Maximum contraction depth               ...    7
Ratio of auxiliary to basis functions    ...  0.77
Integral package used                  ... LIBINT
 One Electron integrals                  ... done
 Ordering auxiliary basis shells         ... done
 Integral threshhold             Thresh  ...  2.500e-11
 Primitive cut-off               TCut    ...  2.500e-12
 Pre-screening matrix                    ... done
 Shell pair data                         ... 
 Ordering of the shell pairs             ... done (   0.000 sec) 528 of 528 pairs
 Determination of significant pairs      ... done (   0.000 sec)
 Creation of shell pair data             ... done (   0.000 sec)
 Storage of shell pair data              ... done (   0.022 sec)
 Shell pair data done in (   0.022 sec)
 Computing two index integrals           ... done
 Cholesky decomposition of the V-matrix  ... done


Timings:
 Total evaluation time                   ...   0.159 sec (  0.003 min)
 One electron matrix time                ...   0.014 sec (  0.000 min) =  9.1%
 Schwartz matrix evaluation time         ...   0.096 sec (  0.002 min) = 60.6%
 Two index repulsion integral time       ...   0.000 sec (  0.000 min) =  0.2%
 Cholesky decomposition of V             ...   0.001 sec (  0.000 min) =  0.4%
 Three index repulsion integral time     ...   0.000 sec (  0.000 min) =  0.0%



           ************************************************************
           *        Program running with 24 parallel MPI-processes    *
           *              working on a common directory               *
           ************************************************************
-------------------------------------------------------------------------------
                                 ORCA SCF
-------------------------------------------------------------------------------

------------
SCF SETTINGS
------------
Hamiltonian:
 Density Functional     Method          .... DFT(GTOs)
 Exchange Functional    Exchange        .... SCAN
 Correlation Functional Correlation     .... SCAN
 Gradients option       PostSCFGGA      .... off
   Density functional embedding theory  .... OFF
   NL short-range parameter             ....  6.400000
 RI-approximation to the Coulomb term is turned on
   Number of auxiliary basis functions  .... 71


General Settings:
 Integral files         IntName         .... 01_H2O
 Hartree-Fock type      HFTyp           .... RHF
 Total Charge           Charge          ....    0
 Multiplicity           Mult            ....    1
 Number of Electrons    NEL             ....   10
 Basis Dimension        Dim             ....   92
 Nuclear Repulsion      ENuc            ....      4.8574378178 Eh

Convergence Acceleration:
 DIIS                   CNVDIIS         .... on
   Start iteration      DIISMaxIt       ....    12
   Startup error        DIISStart       ....  0.200000
   # of expansion vecs  DIISMaxEq       ....     5
   Bias factor          DIISBfac        ....   1.050
   Max. coefficient     DIISMaxC        ....  10.000
 Newton-Raphson         CNVNR           .... off
 SOSCF                  CNVSOSCF        .... on
   Start iteration      SOSCFMaxIt      ....   150
   Startup grad/error   SOSCFStart      ....  0.003300
 Level Shifting         CNVShift        .... on
   Level shift para.    LevelShift      ....    0.2500
   Turn off err/grad.   ShiftErr        ....    0.0010
 Zerner damping         CNVZerner       .... off
 Static damping         CNVDamp         .... on
   Fraction old density DampFac         ....    0.7000
   Max. Damping (<1)    DampMax         ....    0.9800
   Min. Damping (>=0)   DampMin         ....    0.0000
   Turn off err/grad.   DampErr         ....    0.1000
 Fernandez-Rico         CNVRico         .... off

SCF Procedure:
 Maximum # iterations   MaxIter         ....   125
 SCF integral mode      SCFMode         .... Direct
   Integral package                     .... LIBINT
 Reset frequency        DirectResetFreq ....    20
 Integral Threshold     Thresh          ....  2.500e-11 Eh
 Primitive CutOff       TCut            ....  2.500e-12 Eh

Convergence Tolerance:
 Convergence Check Mode ConvCheckMode   .... Total+1el-Energy
 Convergence forced     ConvForced      .... 0
 Energy Change          TolE            ....  1.000e-08 Eh
 1-El. energy change                    ....  1.000e-05 Eh
 Orbital Gradient       TolG            ....  1.000e-05
 Orbital Rotation angle TolX            ....  1.000e-05
 DIIS Error             TolErr          ....  5.000e-07


Diagonalization of the overlap matrix:
Smallest eigenvalue                        ... 2.610e-03
Time for diagonalization                   ...    0.021 sec
Threshold for overlap eigenvalues          ... 1.000e-08
Number of eigenvalues below threshold      ... 0
Time for construction of square roots      ...    0.001 sec
Total time needed                          ...    0.022 sec

-------------------
DFT GRID GENERATION
-------------------

General Integration Accuracy     IntAcc      ...  4.670
Radial Grid Type                 RadialGrid  ... Gauss-Chebyshev
Angular Grid (max. acc.)         AngularGrid ... Lebedev-302
Angular grid pruning method      GridPruning ... 3 (G Style)
Weight generation scheme         WeightScheme... Becke
Basis function cutoff            BFCut       ...    1.0000e-11
Integration weight cutoff        WCut        ...    1.0000e-14
Grids for H and He will be reduced by one unit

# of grid points (after initial pruning)     ...  13000 (   0.0 sec)
# of grid points (after weights+screening)   ...  12960 (   0.0 sec)
nearest neighbour list constructed           ...    0.0 sec
Grid point re-assignment to atoms done       ...    0.0 sec
Grid point division into batches done        ...    0.0 sec
Reduced shell lists constructed in    0.0 sec

Total number of grid points                  ...    12960
Total number of batches                      ...      204
Average number of points per batch           ...       63
Average number of grid points per atom       ...     4320
Average number of shells per batch           ...    14.90 (46.56%)
Average number of basis functions per batch  ...    39.50 (42.93%)
Average number of large shells per batch     ...    10.80 (72.48%)
Average number of large basis fcns per batch ...    27.00 (68.35%)
Maximum spatial batch extension              ...  13.24, 16.88, 11.34 au
Average spatial batch extension              ...   0.48,  0.49,  0.43 au

Time for grid setup =    0.069 sec

------------------------------
INITIAL GUESS: MODEL POTENTIAL
------------------------------
Loading Hartree-Fock densities                     ... done
Calculating cut-offs                               ... done
Setting up the integral package                    ... done
Initializing the effective Hamiltonian             ... done
Starting the Coulomb interaction                   ... done (   0.0 sec)
Reading the grid                                   ... done
Mapping shells                                     ... done
Starting the XC term evaluation                    ... done (   0.0 sec)
  promolecular density results
     # of electrons  =      9.999018782
     EX              =     -9.373930894
     EC              =     -0.152913315
     EX+EC           =     -9.526844209
Transforming the Hamiltonian                       ... done (   0.0 sec)
Diagonalizing the Hamiltonian                      ... done (   0.0 sec)
Back transforming the eigenvectors                 ... done (   0.0 sec)
Now organizing SCF variables                       ... done
                      ------------------
                      INITIAL GUESS DONE (   0.2 sec)
                      ------------------
--------------
SCF ITERATIONS
--------------
ITER       Energy         Delta-E        Max-DP      RMS-DP      [F,P]     Damp
               ***  Starting incremental Fock matrix formation  ***
  0    -75.4453689303   0.000000000000 0.12804925  0.00521677  0.8159802 0.7000
  1    -75.8797350981  -0.434366167781 0.06812475  0.00265889  0.1375754 0.7000
  2    -75.8408367876   0.038898310436 0.04443254  0.00147914  0.2339401 0.7000
                               ***Turning on DIIS***
  3    -75.9499882187  -0.109151431099 0.02982892  0.00119773  0.1041661 0.7000
  4    -75.9975204501  -0.047532231410 0.05659189  0.00240533  0.0994056 0.0000
  5    -76.0564510355  -0.058930585369 0.00507270  0.00015867  0.1850885 0.7000
  6    -76.0650466004  -0.008595564939 0.00625436  0.00020431  0.1690821 0.7000
  7    -76.0750557003  -0.010009099838 0.00619018  0.00021045  0.1494497 0.7000
  8    -76.0841144743  -0.009058773984 0.00780806  0.00028831  0.1302846 0.7000
  9    -76.0951095963  -0.010995122022 0.01056774  0.00038515  0.1002048 0.7000
 10    -76.1053569029  -0.010247306581 0.02822011  0.00106258  0.0668081 0.0000
 11    -76.1156949840  -0.010338081137 0.00191897  0.00007223  0.0173285 0.0000
 12    -76.1159639695  -0.000268985475 0.00138624  0.00004796  0.0100639 0.0000
 13    -76.1160770689  -0.000113099429 0.00083988  0.00003037  0.0055945 0.0000
                      *** Initiating the SOSCF procedure ***
                           *** Shutting down DIIS ***
                      *** Re-Reading the Fockian *** 
                      *** Removing any level shift *** 
ITER      Energy       Delta-E        Grad      Rot      Max-DP    RMS-DP
 14    -76.11611750  -0.0000404320  0.000442  0.000442  0.000479  0.000018
               *** Restarting incremental Fock matrix formation ***
 15    -76.11613031  -0.0000128079  0.001136  0.008083  0.003832  0.000132
 16    -76.11592852   0.0002017897  0.007321  0.007056  0.003410  0.000114
 17    -76.11613489  -0.0002063722  0.000037  0.000056  0.000047  0.000002
 18    -76.11613490  -0.0000000092  0.000015  0.000016  0.000013  0.000001
                 **** Energy Check signals convergence ****
              ***Rediagonalizing the Fockian in SOSCF/NRSCF***

               *****************************************************
               *                     SUCCESS                       *
               *           SCF CONVERGED AFTER  19 CYCLES          *
               *****************************************************


----------------
TOTAL SCF ENERGY
----------------

Total Energy       :          -76.11613490 Eh           -2071.22533 eV

Components:
Nuclear Repulsion  :            4.85743782 Eh             132.17760 eV
Electronic Energy  :          -80.97357272 Eh           -2203.40293 eV
One Electron Energy:         -114.60186200 Eh           -3118.47521 eV
Two Electron Energy:           33.62828929 Eh             915.07227 eV

Virial components:
Potential Energy   :         -151.19035841 Eh           -4114.09881 eV
Kinetic Energy     :           75.07422350 Eh            2042.87348 eV
Virial Ratio       :            2.01387842


DFT components:
N(Alpha)           :        5.000016917223 electrons
N(Beta)            :        5.000016917223 electrons
N(Total)           :       10.000033834447 electrons
E(X)               :       -8.565930796284 Eh       
E(C)               :       -0.299576728754 Eh       
E(XC)              :       -8.865507525038 Eh       
DFET-embed. en.    :        0.000000000000 Eh       

---------------
SCF CONVERGENCE
---------------

  Last Energy change         ...   -1.6870e-09  Tolerance :   1.0000e-08
  Last MAX-Density change    ...    1.9530e-06  Tolerance :   1.0000e-07
  Last RMS-Density change    ...    6.7740e-08  Tolerance :   5.0000e-09
  Last Orbital Gradient      ...    1.9212e-06  Tolerance :   1.0000e-05
  Last Orbital Rotation      ...    2.4725e-06  Tolerance :   1.0000e-05

             **** THE GBW FILE WAS UPDATED (01_H2O.gbw) ****
             **** DENSITY FILE WAS UPDATED (01_H2O.scfp) ****
             **** ENERGY FILE WAS UPDATED (01_H2O.en.tmp) ****
             **** THE GBW FILE WAS UPDATED (01_H2O.gbw) ****
             **** DENSITY FILE WAS UPDATED (01_H2O.scfp) ****
----------------
ORBITAL ENERGIES
----------------

  NO   OCC          E(Eh)            E(eV) 
   0   2.0000     -19.040405      -518.1158 
   1   2.0000      -0.852730       -23.2040 
   2   2.0000      -0.335260        -9.1229 
   3   2.0000      -0.316414        -8.6101 
   4   2.0000      -0.254237        -6.9181 
   5   0.0000      -0.189094        -5.1455 
   6   0.0000      -0.160640        -4.3712 
   7   0.0000       0.054379         1.4797 
   8   0.0000       0.076368         2.0781 
   9   0.0000       0.107871         2.9353 
  10   0.0000       0.115795         3.1509 
  11   0.0000       0.161988         4.4079 
  12   0.0000       0.168505         4.5853 
  13   0.0000       0.192876         5.2484 
  14   0.0000       0.220631         6.0037 
  15   0.0000       0.226333         6.1588 
  16   0.0000       0.270486         7.3603 
  17   0.0000       0.278293         7.5727 
  18   0.0000       0.292033         7.9466 
  19   0.0000       0.471077        12.8187 
  20   0.0000       0.521345        14.1865 
  21   0.0000       0.596355        16.2276 
  22   0.0000       0.611636        16.6435 
  23   0.0000       0.616478        16.7752 
  24   0.0000       0.643322        17.5057 
  25   0.0000       0.666647        18.1404 
  26   0.0000       0.719676        19.5834 
  27   0.0000       0.771076        20.9820 
  28   0.0000       0.796175        21.6650 
  29   0.0000       0.801043        21.7975 
  30   0.0000       0.812462        22.1082 
  31   0.0000       0.845357        23.0033 
  32   0.0000       0.859598        23.3909 
  33   0.0000       0.894967        24.3533 
  34   0.0000       0.914522        24.8854 
  35   0.0000       0.932481        25.3741 
  36   0.0000       0.935184        25.4477 
  37   0.0000       0.975230        26.5374 
  38   0.0000       1.053437        28.6655 
  39   0.0000       1.067690        29.0533 
  40   0.0000       1.072273        29.1780 
  41   0.0000       1.151615        31.3370 
  42   0.0000       1.190853        32.4048 
  43   0.0000       1.285340        34.9759 
  44   0.0000       1.535451        41.7817 
  45   0.0000       1.783403        48.5289 
  46   0.0000       1.955431        53.2100 
  47   0.0000       1.966715        53.5170 
  48   0.0000       1.973403        53.6990 
  49   0.0000       2.039234        55.4904 
  50   0.0000       2.049764        55.7769 
  51   0.0000       2.082328        56.6630 
  52   0.0000       2.142701        58.3059 
  53   0.0000       2.150123        58.5078 
  54   0.0000       2.215488        60.2865 
  55   0.0000       2.298417        62.5431 
  56   0.0000       2.343111        63.7593 
  57   0.0000       2.351009        63.9742 
  58   0.0000       2.843306        77.3703 
  59   0.0000       2.861399        77.8626 
  60   0.0000       3.695880       100.5700 
  61   0.0000       3.716899       101.1420 
  62   0.0000       3.751411       102.0811 
  63   0.0000       3.752737       102.1172 
  64   0.0000       3.764416       102.4350 
  65   0.0000       3.780213       102.8648 
  66   0.0000       3.824462       104.0689 
  67   0.0000       3.834333       104.3375 
  68   0.0000       3.883564       105.6772 
  69   0.0000       3.921095       106.6984 
  70   0.0000       3.935801       107.0986 
  71   0.0000       3.936127       107.1075 
  72   0.0000       3.972941       108.1092 
  73   0.0000       4.058368       110.4338 
  74   0.0000       4.145922       112.8163 
  75   0.0000       4.149095       112.9026 
  76   0.0000       4.157644       113.1353 
  77   0.0000       4.467314       121.5618 
  78   0.0000       4.551001       123.8390 
  79   0.0000       6.256270       170.2418 
  80   0.0000       6.287439       171.0899 
  81   0.0000       6.356803       172.9774 
  82   0.0000       6.370374       173.3467 
  83   0.0000       6.417091       174.6179 
  84   0.0000       6.537290       177.8887 
  85   0.0000       6.601520       179.6365 
  86   0.0000       6.647838       180.8969 
  87   0.0000       6.655499       181.1053 
  88   0.0000       6.705016       182.4528 
  89   0.0000       6.780705       184.5124 
  90   0.0000       6.984402       190.0552 
  91   0.0000       9.875009       268.7127 

                    ********************************
                    * MULLIKEN POPULATION ANALYSIS *
                    ********************************

-----------------------
MULLIKEN ATOMIC CHARGES
-----------------------
   0 O :   -0.447823
   1 H :    0.223911
   2 H :    0.223911
Sum of atomic charges:   -0.0000000

--------------------------------
MULLIKEN REDUCED ORBITAL CHARGES
--------------------------------
  0 O s       :     3.985910  s :     3.985910
      pz      :     1.244228  p :     4.447664
      px      :     1.980444
      py      :     1.222992
      dz2     :     0.000773  d :     0.013074
      dxz     :     0.000458
      dyz     :     0.010280
      dx2y2   :     0.001564
      dxy     :     0.000000
      f0      :    -0.000028  f :     0.001174
      f+1     :     0.000022
      f-1     :     0.000131
      f+2     :     0.000600
      f-2     :     0.000000
      f+3     :     0.000078
      f-3     :     0.000370
  1 H s       :     0.756527  s :     0.756527
      pz      :     0.003546  p :     0.017496
      px      :     0.008279
      py      :     0.005671
      dz2     :     0.000254  d :     0.002065
      dxz     :     0.000402
      dyz     :     0.000066
      dx2y2   :     0.000525
      dxy     :     0.000818
  2 H s       :     0.756527  s :     0.756527
      pz      :     0.003546  p :     0.017496
      px      :     0.008279
      py      :     0.005671
      dz2     :     0.000254  d :     0.002065
      dxz     :     0.000402
      dyz     :     0.000066
      dx2y2   :     0.000525
      dxy     :     0.000818


                     *******************************
                     * LOEWDIN POPULATION ANALYSIS *
                     *******************************

----------------------
LOEWDIN ATOMIC CHARGES
----------------------
   0 O :   -0.159685
   1 H :    0.079842
   2 H :    0.079842

-------------------------------
LOEWDIN REDUCED ORBITAL CHARGES
-------------------------------
  0 O s       :     3.710881  s :     3.710881
      pz      :     1.261435  p :     4.390368
      px      :     1.887341
      py      :     1.241592
      dz2     :     0.000078  d :     0.052464
      dxz     :     0.000348
      dyz     :     0.036171
      dx2y2   :     0.015867
      dxy     :     0.000000
      f0      :     0.000747  f :     0.005972
      f+1     :     0.000008
      f-1     :     0.001386
      f+2     :     0.003044
      f-2     :     0.000000
      f+3     :     0.000070
      f-3     :     0.000717
  1 H s       :     0.679676  s :     0.679676
      pz      :     0.044051  p :     0.127395
      px      :     0.026905
      py      :     0.056440
      dz2     :     0.014029  d :     0.113087
      dxz     :     0.010991
      dyz     :     0.048592
      dx2y2   :     0.021254
      dxy     :     0.018221
  2 H s       :     0.679676  s :     0.679676
      pz      :     0.044051  p :     0.127395
      px      :     0.026905
      py      :     0.056440
      dz2     :     0.014029  d :     0.113087
      dxz     :     0.010991
      dyz     :     0.048592
      dx2y2   :     0.021254
      dxy     :     0.018221


                      *****************************
                      * MAYER POPULATION ANALYSIS *
                      *****************************

  NA   - Mulliken gross atomic population
  ZA   - Total nuclear charge
  QA   - Mulliken gross atomic charge
  VA   - Mayer's total valence
  BVA  - Mayer's bonded valence
  FA   - Mayer's free valence

  ATOM       NA         ZA         QA         VA         BVA        FA
  0 O      8.4478     8.0000    -0.4478     1.9171     1.9171    -0.0000
  1 H      0.7761     1.0000     0.2239     0.9684     0.9684    -0.0000
  2 H      0.7761     1.0000     0.2239     0.9684     0.9684    -0.0000

  Mayer bond orders larger than 0.100000
B(  0-O ,  1-H ) :   0.9585 B(  0-O ,  2-H ) :   0.9585 

-------
TIMINGS
-------

Total SCF time: 0 days 0 hours 0 min 1 sec 

Total time                  ....       1.923 sec
Sum of individual times     ....       1.810 sec  ( 94.2%)

Fock matrix formation       ....       1.571 sec  ( 81.7%)
  Split-RI-J                ....       1.278 sec  ( 81.3% of F)
  XC integration            ....       0.234 sec  ( 14.9% of F)
    Basis function eval.    ....       0.023 sec  (  9.9% of XC)
    Density eval.           ....       0.032 sec  ( 13.7% of XC)
    XC-Functional eval.     ....       0.015 sec  (  6.4% of XC)
    XC-Potential eval.      ....       0.062 sec  ( 26.5% of XC)
Diagonalization             ....       0.016 sec  (  0.9%)
Density matrix formation    ....       0.005 sec  (  0.3%)
Population analysis         ....       0.044 sec  (  2.3%)
Initial guess               ....       0.091 sec  (  4.7%)
Orbital Transformation      ....       0.000 sec  (  0.0%)
Orbital Orthonormalization  ....       0.000 sec  (  0.0%)
DIIS solution               ....       0.010 sec  (  0.5%)
SOSCF solution              ....       0.004 sec  (  0.2%)
Grid generation             ....       0.069 sec  (  3.6%)


-------------------------------------------------------------------------------
                          DFT DISPERSION CORRECTION                            
                                                                               
                              DFTD3 V3.1  Rev 1                                
                          USING Becke-Johnson damping                          
-------------------------------------------------------------------------------
The SCAN functional is recognized
Active option DFTDOPT                   ...         4   

molecular C6(AA) [au] = 85.319616 


            DFT-D V3
 parameters
 s6 scaling factor         :     1.0000 
 a1 scaling factor         :     0.5380 
 s8 scaling factor         :     0.0000 
 a2 scaling factor         :     5.4200 
 ad hoc parameters k1-k3   :    16.0000     1.3333    -4.0000 

 Edisp/kcal,au: -0.094391194776  -0.000150421928 
 E6   /kcal   :  -0.094391195 
 E8   /kcal   :  -0.000000000 
 % E8         :   0.000000000 

-------------------------   ----------------
Dispersion correction           -0.000150422
-------------------------   ----------------


-------------------------   --------------------
FINAL SINGLE POINT ENERGY       -76.116285324009
-------------------------   --------------------



           ************************************************************
           *        Program running with 24 parallel MPI-processes    *
           *              working on a common directory               *
           ************************************************************
------------------------------------------------------------------------------
                         ORCA SCF GRADIENT CALCULATION
------------------------------------------------------------------------------

Gradient of the Kohn-Sham DFT energy:
Kohn-Sham wavefunction type      ... RKS
Hartree-Fock exchange scaling    ...    0.000
Number of operators              ...    1
Number of atoms                  ...    3
Basis set dimensions             ...   92
Integral neglect threshold       ... 2.5e-11
Integral primitive cutoff        ... 2.5e-12

Nuclear repulsion gradient       ... done
One Electron Gradient            ... done
Pre-screening matrix             ... done
RI-J gradient                    ... done
Exchange-correlation gradient    ... done
Dispersion correction            ... done

------------------
CARTESIAN GRADIENT
------------------

   1   O   :   -0.000000001   -0.000000013    0.151845302
   2   H   :   -0.000000000   -0.069566119   -0.047790326
   3   H   :    0.000000001    0.069566118   -0.047790326

Difference to translation invariance:
           :    0.0000000003   -0.0000000135    0.0562646498

Norm of the cartesian gradient     ...    0.1931416994
RMS gradient                       ...    0.0643805665
MAX gradient                       ...    0.1518453020

-------
TIMINGS
-------

Total SCF gradient time            ...        0.326 sec

One electron gradient       ....       0.012 sec  (  3.7%)
Prescreening matrices       ....       0.010 sec  (  3.2%)
RI-J Coulomb gradient       ....       0.107 sec  ( 32.9%)
XC gradient                 ....       0.018 sec  (  5.6%)
------------------------------------------------------------------------------
                         ORCA GEOMETRY RELAXATION STEP
------------------------------------------------------------------------------

Reading the OPT-File                    .... done
Getting information on internals        .... done
Copying old internal coords+grads       .... done
Making the new internal coordinates     .... (new redundants).... done
Validating the new internal coordinates .... (new redundants).... done
Calculating the B-matrix                .... done
Calculating the G,G- and P matrices     .... done
Transforming gradient to internals      .... done
Projecting the internal gradient        .... done
Number of atoms                         ....   3
Number of internal coordinates          ....   3
Current Energy                          ....   -76.116285324 Eh
Current gradient norm                   ....     0.193141699 Eh/bohr
Maximum allowed component of the step   ....  0.300
Current trust radius                    ....  0.300
Evaluating the initial hessian          ....  (Almloef) done
Projecting the Hessian                  .... done
Forming the augmented Hessian           .... done
Diagonalizing the augmented Hessian     .... done
Last element of RFO vector              ....  0.738157024
Lowest eigenvalues of augmented Hessian:
 -0.126839846  0.022731116  0.124638211
Length of the computed step             ....  0.913936898
Warning: the length of the step is outside the trust region - taking restricted step instead
The input lambda is                     ....    -0.126840
   iter:   1  x=   -0.194131  g=   11.075418 f(x)=     0.745281
   iter:   2  x=   -0.278927  g=    3.655087 f(x)=     0.309934
   iter:   3  x=   -0.365238  g=    1.366305 f(x)=     0.117927
   iter:   4  x=   -0.421412  g=    0.645372 f(x)=     0.036253
   iter:   5  x=   -0.436601  g=    0.431280 f(x)=     0.006551
   iter:   6  x=   -0.437420  g=    0.390143 f(x)=     0.000319
   iter:   7  x=   -0.437422  g=    0.388078 f(x)=     0.000001
   iter:   8  x=   -0.437422  g=    0.388072 f(x)=     0.000000
   iter:   9  x=   -0.437422  g=    0.388072 f(x)=     0.000000
The output lambda is                    ....    -0.437422 (9 iterations)
The final length of the internal step   ....  0.300000000
Converting the step to cartesian space:
 Initial RMS(Int)=    0.1732050808
Transforming coordinates:
 Iter   0:  RMS(Cart)=    0.0743208635 RMS(Int)=    0.1724042217
 Iter   1:  RMS(Cart)=    0.0026760062 RMS(Int)=    0.0026892394
 Iter   2:  RMS(Cart)=    0.0001816723 RMS(Int)=    0.0002086600
 Iter   3:  RMS(Cart)=    0.0000090972 RMS(Int)=    0.0000108001
 Iter   4:  RMS(Cart)=    0.0000004227 RMS(Int)=    0.0000005086
 Iter   5:  RMS(Cart)=    0.0000000190 RMS(Int)=    0.0000000230
done
Storing new coordinates                 .... done

                                .--------------------.
          ----------------------|Geometry convergence|-------------------------
          Item                value                   Tolerance       Converged
          ---------------------------------------------------------------------
          RMS gradient        0.0806031090            0.0001000000      NO
          MAX gradient        0.0957574874            0.0003000000      NO
          RMS step            0.1732050808            0.0020000000      NO
          MAX step            0.2080990642            0.0040000000      NO
          ........................................................
          Max(Bonds)      0.1101      Max(Angles)    3.34
          Max(Dihed)        0.00      Max(Improp)    0.00
          ---------------------------------------------------------------------

The optimization has not yet converged - more geometry cycles are needed


    ---------------------------------------------------------------------------
                         Redundant Internal Coordinates
                            (Angstroem and degrees)

        Definition                    Value    dE/dq     Step     New-Value
    ----------------------------------------------------------------------------
     1. B(H   1,O   0)                1.8120  0.095757 -0.1101    1.7019   
     2. B(H   2,O   0)                1.8120  0.095757 -0.1101    1.7019   
     3. A(H   1,O   0,H   2)          104.36 -0.033935    3.34    107.70   
    ----------------------------------------------------------------------------

         *************************************************************
         *                GEOMETRY OPTIMIZATION CYCLE   2            *
         *************************************************************
---------------------------------
CARTESIAN COORDINATES (ANGSTROEM)
---------------------------------
  O      0.000000    0.000000    0.052951
  H      0.000000   -1.374208   -0.951049
  H      0.000000    1.374208   -0.951049

----------------------------
CARTESIAN COORDINATES (A.U.)
----------------------------
  NO LB      ZA    FRAG     MASS         X           Y           Z
   0 O     8.0000    0    15.999    0.000000    0.000000    0.100062
   1 H     1.0000    0     1.008    0.000000   -2.596877   -1.797223
   2 H     1.0000    0     1.008    0.000000    2.596877   -1.797223

--------------------------------
INTERNAL COORDINATES (ANGSTROEM)
--------------------------------
 O      0   0   0     0.000000000000     0.00000000     0.00000000
 H      1   0   0     1.701900255631     0.00000000     0.00000000
 H      1   2   0     1.701900245552   107.69607996     0.00000000

---------------------------
INTERNAL COORDINATES (A.U.)
---------------------------
 O      0   0   0     0.000000000000     0.00000000     0.00000000
 H      1   0   0     3.216125390394     0.00000000     0.00000000
 H      1   2   0     3.216125371346   107.69607996     0.00000000



           ************************************************************
           *        Program running with 24 parallel MPI-processes    *
           *              working on a common directory               *
           ************************************************************
 One Electron integrals                  ... done
 Pre-screening matrix                    ... done


           ************************************************************
           *        Program running with 24 parallel MPI-processes    *
           *              working on a common directory               *
           ************************************************************

Diagonalization of the overlap matrix:
Smallest eigenvalue                        ... 2.034e-03
Time for diagonalization                   ...    0.003 sec
Threshold for overlap eigenvalues          ... 1.000e-08
Number of eigenvalues below threshold      ... 0
Time for construction of square roots      ...    0.001 sec
Total time needed                          ...    0.004 sec

-------------------
DFT GRID GENERATION
-------------------

General Integration Accuracy     IntAcc      ...  4.670
Radial Grid Type                 RadialGrid  ... Gauss-Chebyshev
Angular Grid (max. acc.)         AngularGrid ... Lebedev-302
Angular grid pruning method      GridPruning ... 3 (G Style)
Weight generation scheme         WeightScheme... Becke
Basis function cutoff            BFCut       ...    1.0000e-11
Integration weight cutoff        WCut        ...    1.0000e-14
Grids for H and He will be reduced by one unit

# of grid points (after initial pruning)     ...  13000 (   0.0 sec)
# of grid points (after weights+screening)   ...  12962 (   0.0 sec)
nearest neighbour list constructed           ...    0.0 sec
Grid point re-assignment to atoms done       ...    0.0 sec
Grid point division into batches done        ...    0.0 sec
Reduced shell lists constructed in    0.0 sec

Total number of grid points                  ...    12962
Total number of batches                      ...      204
Average number of points per batch           ...       63
Average number of grid points per atom       ...     4321
Average number of shells per batch           ...    14.90 (46.56%)
Average number of basis functions per batch  ...    39.50 (42.93%)
Average number of large shells per batch     ...    10.90 (73.15%)
Average number of large basis fcns per batch ...    27.30 (69.11%)
Maximum spatial batch extension              ...  13.24, 16.88, 11.34 au
Average spatial batch extension              ...   0.48,  0.50,  0.43 au

Time for grid setup =    0.069 sec

--------------
SCF ITERATIONS
--------------
ITER       Energy         Delta-E        Max-DP      RMS-DP      [F,P]     Damp
               ***  Starting incremental Fock matrix formation  ***
  0    -76.1510928944   0.000000000000 0.00382492  0.00012051  0.0158854 0.7000
  1    -76.1514281320  -0.000335237524 0.00242976  0.00008895  0.0082252 0.7000
                               ***Turning on DIIS***
  2    -76.1515598491  -0.000131717119 0.00638289  0.00021706  0.0086457 0.0000
  3    -76.1519583180  -0.000398468909 0.00202453  0.00004677  0.0037234 0.0000
                      *** Initiating the SOSCF procedure ***
                           *** Shutting down DIIS ***
                      *** Re-Reading the Fockian *** 
                      *** Removing any level shift *** 
ITER      Energy       Delta-E        Grad      Rot      Max-DP    RMS-DP
  4    -76.15196617  -0.0000078548  0.000559  0.000559  0.000565  0.000020
               *** Restarting incremental Fock matrix formation ***
  5    -76.15196880  -0.0000026313  0.000459  0.003185  0.001572  0.000047
  6    -76.15194614   0.0000226593  0.002437  0.002367  0.001168  0.000039
  7    -76.15196970  -0.0000235581  0.000017  0.000022  0.000015  0.000001
  8    -76.15196970  -0.0000000010  0.000009  0.000009  0.000005  0.000000
                 **** Energy Check signals convergence ****
              ***Rediagonalizing the Fockian in SOSCF/NRSCF***

               *****************************************************
               *                     SUCCESS                       *
               *           SCF CONVERGED AFTER   9 CYCLES          *
               *****************************************************

Total Energy       :          -76.15196970 Eh           -2072.20044 eV
  Last Energy change         ...   -4.8497e-10  Tolerance :   1.0000e-08
  Last MAX-Density change    ...    1.0467e-06  Tolerance :   1.0000e-07
             **** THE GBW FILE WAS UPDATED (01_H2O.gbw) ****
             **** DENSITY FILE WAS UPDATED (01_H2O.scfp) ****
             **** ENERGY FILE WAS UPDATED (01_H2O.en.tmp) ****
             **** THE GBW FILE WAS UPDATED (01_H2O.gbw) ****
             **** DENSITY FILE WAS UPDATED (01_H2O.scfp) ****
Total SCF time: 0 days 0 hours 0 min 1 sec 


-------------------------------------------------------------------------------
                          DFT DISPERSION CORRECTION                            
                                                                               
                              DFTD3 V3.1  Rev 1                                
                          USING Becke-Johnson damping                          
-------------------------------------------------------------------------------
-------------------------   ----------------
Dispersion correction           -0.000151875
-------------------------   ----------------


-------------------------   --------------------
FINAL SINGLE POINT ENERGY       -76.152121579056
-------------------------   --------------------



           ************************************************************
           *        Program running with 24 parallel MPI-processes    *
           *              working on a common directory               *
           ************************************************************
------------------------------------------------------------------------------
                         ORCA SCF GRADIENT CALCULATION
------------------------------------------------------------------------------

Gradient of the Kohn-Sham DFT energy:
Kohn-Sham wavefunction type      ... RKS
Hartree-Fock exchange scaling    ...    0.000
Number of operators              ...    1
Number of atoms                  ...    3
Basis set dimensions             ...   92
Integral neglect threshold       ... 2.5e-11
Integral primitive cutoff        ... 2.5e-12

Nuclear repulsion gradient       ... done
One Electron Gradient            ... done
Pre-screening matrix             ... done
RI-J gradient                    ... done
Exchange-correlation gradient    ... done
Dispersion correction            ... done

------------------
CARTESIAN GRADIENT
------------------

   1   O   :   -0.000000013    0.000000006    0.164408877
   2   H   :   -0.000000000   -0.079769411   -0.049325332
   3   H   :    0.000000009    0.079769411   -0.049325334

Difference to translation invariance:
           :   -0.0000000047    0.0000000060    0.0657582105

Norm of the cartesian gradient     ...    0.2112405588
RMS gradient                       ...    0.0704135196
MAX gradient                       ...    0.1644088769

-------
TIMINGS
-------

Total SCF gradient time            ...        0.286 sec

One electron gradient       ....       0.013 sec  (  4.4%)
Prescreening matrices       ....       0.012 sec  (  4.3%)
RI-J Coulomb gradient       ....       0.067 sec  ( 23.6%)
XC gradient                 ....       0.018 sec  (  6.2%)
------------------------------------------------------------------------------
                         ORCA GEOMETRY RELAXATION STEP
------------------------------------------------------------------------------

Reading the OPT-File                    .... done
Getting information on internals        .... done
Copying old internal coords+grads       .... done
Making the new internal coordinates     .... (new redundants).... done
Validating the new internal coordinates .... (new redundants).... done
Calculating the B-matrix                .... done
Calculating the G,G- and P matrices     .... done
Transforming gradient to internals      .... done
Projecting the internal gradient        .... done
Number of atoms                         ....   3
Number of internal coordinates          ....   3
Current Energy                          ....   -76.152121579 Eh
Current gradient norm                   ....     0.211240559 Eh/bohr
Maximum allowed component of the step   ....  0.300
Current trust radius                    ....  0.300
Updating the Hessian (BFGS)             .... done
Forming the augmented Hessian           .... done
Diagonalizing the augmented Hessian     .... done
Last element of RFO vector              ....  0.648427333
Lowest eigenvalues of augmented Hessian:
 -0.180870993  0.022731116  0.113381514
Length of the computed step             ....  1.174035264
Warning: the length of the step is outside the trust region - taking restricted step instead
The input lambda is                     ....    -0.180871
   iter:   1  x=   -0.242132  g=   21.030563 f(x)=     1.288359
   iter:   2  x=   -0.324824  g=    6.654711 f(x)=     0.550286
   iter:   3  x=   -0.422907  g=    2.276498 f(x)=     0.223287
   iter:   4  x=   -0.510953  g=    0.912118 f(x)=     0.080308
   iter:   5  x=   -0.555497  g=    0.483250 f(x)=     0.021526
   iter:   6  x=   -0.563025  g=    0.366529 f(x)=     0.002759
   iter:   7  x=   -0.563197  g=    0.350646 f(x)=     0.000060
   iter:   8  x=   -0.563197  g=    0.350293 f(x)=     0.000000
   iter:   9  x=   -0.563197  g=    0.350293 f(x)=     0.000000
   iter:  10  x=   -0.563197  g=    0.350293 f(x)=    -0.000000
The output lambda is                    ....    -0.563197 (10 iterations)
The final length of the internal step   ....  0.300000000
Converting the step to cartesian space:
 Initial RMS(Int)=    0.1732050808
Transforming coordinates:
 Iter   0:  RMS(Cart)=    0.0756746525 RMS(Int)=    0.1724843488
 Iter   1:  RMS(Cart)=    0.0026723548 RMS(Int)=    0.0028513786
 Iter   2:  RMS(Cart)=    0.0001945478 RMS(Int)=    0.0002284658
 Iter   3:  RMS(Cart)=    0.0000106701 RMS(Int)=    0.0000128036
 Iter   4:  RMS(Cart)=    0.0000005533 RMS(Int)=    0.0000006692
 Iter   5:  RMS(Cart)=    0.0000000281 RMS(Int)=    0.0000000341
done
Storing new coordinates                 .... done

                                .--------------------.
          ----------------------|Geometry convergence|-------------------------
          Item                value                   Tolerance       Converged
          ---------------------------------------------------------------------
          Energy change      -0.0358362550            0.0000050000      NO
          RMS gradient        0.0890549010            0.0001000000      NO
          MAX gradient        0.1064395559            0.0003000000      NO
          RMS step            0.1732050808            0.0020000000      NO
          MAX step            0.2079727734            0.0040000000      NO
          ........................................................
          Max(Bonds)      0.1101      Max(Angles)    3.39
          Max(Dihed)        0.00      Max(Improp)    0.00
          ---------------------------------------------------------------------

The optimization has not yet converged - more geometry cycles are needed


    ---------------------------------------------------------------------------
                         Redundant Internal Coordinates
                            (Angstroem and degrees)

        Definition                    Value    dE/dq     Step     New-Value
    ----------------------------------------------------------------------------
     1. B(H   1,O   0)                1.7019  0.106440 -0.1101    1.5918   
     2. B(H   2,O   0)                1.7019  0.106440 -0.1101    1.5918   
     3. A(H   1,O   0,H   2)          107.70 -0.033669    3.39    111.08   
    ----------------------------------------------------------------------------

         *************************************************************
         *                GEOMETRY OPTIMIZATION CYCLE   3            *
         *************************************************************
---------------------------------
CARTESIAN COORDINATES (ANGSTROEM)
---------------------------------
  O      0.000000   -0.000000   -0.015930
  H      0.000000   -1.312536   -0.916609
  H      0.000000    1.312536   -0.916609

----------------------------
CARTESIAN COORDINATES (A.U.)
----------------------------
  NO LB      ZA    FRAG     MASS         X           Y           Z
   0 O     8.0000    0    15.999    0.000000   -0.000000   -0.030103
   1 H     1.0000    0     1.008    0.000000   -2.480333   -1.732140
   2 H     1.0000    0     1.008    0.000000    2.480333   -1.732140

--------------------------------
INTERNAL COORDINATES (ANGSTROEM)
--------------------------------
 O      0   0   0     0.000000000000     0.00000000     0.00000000
 H      1   0   0     1.591845803176     0.00000000     0.00000000
 H      1   2   0     1.591845807473   111.08315823     0.00000000

---------------------------
INTERNAL COORDINATES (A.U.)
---------------------------
 O      0   0   0     0.000000000000     0.00000000     0.00000000
 H      1   0   0     3.008152615435     0.00000000     0.00000000
 H      1   2   0     3.008152623554   111.08315823     0.00000000



           ************************************************************
           *        Program running with 24 parallel MPI-processes    *
           *              working on a common directory               *
           ************************************************************
 One Electron integrals                  ... done
 Pre-screening matrix                    ... done


           ************************************************************
           *        Program running with 24 parallel MPI-processes    *
           *              working on a common directory               *
           ************************************************************

Diagonalization of the overlap matrix:
Smallest eigenvalue                        ... 1.573e-03
Time for diagonalization                   ...    0.003 sec
Threshold for overlap eigenvalues          ... 1.000e-08
Number of eigenvalues below threshold      ... 0
Time for construction of square roots      ...    0.001 sec
Total time needed                          ...    0.005 sec

-------------------
DFT GRID GENERATION
-------------------

General Integration Accuracy     IntAcc      ...  4.670
Radial Grid Type                 RadialGrid  ... Gauss-Chebyshev
Angular Grid (max. acc.)         AngularGrid ... Lebedev-302
Angular grid pruning method      GridPruning ... 3 (G Style)
Weight generation scheme         WeightScheme... Becke
Basis function cutoff            BFCut       ...    1.0000e-11
Integration weight cutoff        WCut        ...    1.0000e-14
Grids for H and He will be reduced by one unit

# of grid points (after initial pruning)     ...  13000 (   0.0 sec)
# of grid points (after weights+screening)   ...  12954 (   0.0 sec)
nearest neighbour list constructed           ...    0.0 sec
Grid point re-assignment to atoms done       ...    0.0 sec
Grid point division into batches done        ...    0.0 sec
Reduced shell lists constructed in    0.0 sec

Total number of grid points                  ...    12954
Total number of batches                      ...      204
Average number of points per batch           ...       63
Average number of grid points per atom       ...     4318
Average number of shells per batch           ...    15.10 (47.19%)
Average number of basis functions per batch  ...    40.50 (44.02%)
Average number of large shells per batch     ...    10.90 (72.19%)
Average number of large basis fcns per batch ...    27.30 (67.41%)
Maximum spatial batch extension              ...  13.13, 17.72, 11.55 au
Average spatial batch extension              ...   0.46,  0.50,  0.43 au

Time for grid setup =    0.068 sec

--------------
SCF ITERATIONS
--------------
ITER       Energy         Delta-E        Max-DP      RMS-DP      [F,P]     Damp
               ***  Starting incremental Fock matrix formation  ***
  0    -76.1899825944   0.000000000000 0.00377885  0.00012733  0.0184051 0.7000
  1    -76.1904047110  -0.000422116546 0.00257168  0.00010032  0.0105152 0.7000
                               ***Turning on DIIS***
  2    -76.1906099105  -0.000205199511 0.00710079  0.00024188  0.0086428 0.0000
                      *** Initiating the SOSCF procedure ***
                           *** Shutting down DIIS ***
                      *** Re-Reading the Fockian *** 
                      *** Removing any level shift *** 
ITER      Energy       Delta-E        Grad      Rot      Max-DP    RMS-DP
  3    -76.19116015  -0.0005502445  0.000800  0.000800  0.001741  0.000046
               *** Restarting incremental Fock matrix formation ***
  4    -76.19116787  -0.0000077181  0.000500  0.003069  0.001559  0.000046
  5    -76.19114980   0.0000180686  0.002169  0.002090  0.001063  0.000036
  6    -76.19116925  -0.0000194488  0.000024  0.000058  0.000034  0.000001
  7    -76.19116926  -0.0000000051  0.000014  0.000013  0.000008  0.000000
                 **** Energy Check signals convergence ****
              ***Rediagonalizing the Fockian in SOSCF/NRSCF***

               *****************************************************
               *                     SUCCESS                       *
               *           SCF CONVERGED AFTER   8 CYCLES          *
               *****************************************************

Total Energy       :          -76.19116926 Eh           -2073.26712 eV
  Last Energy change         ...   -1.8832e-09  Tolerance :   1.0000e-08
  Last MAX-Density change    ...    1.7242e-06  Tolerance :   1.0000e-07
             **** THE GBW FILE WAS UPDATED (01_H2O.gbw) ****
             **** DENSITY FILE WAS UPDATED (01_H2O.scfp) ****
             **** ENERGY FILE WAS UPDATED (01_H2O.en.tmp) ****
             **** THE GBW FILE WAS UPDATED (01_H2O.gbw) ****
             **** DENSITY FILE WAS UPDATED (01_H2O.scfp) ****
Total SCF time: 0 days 0 hours 0 min 1 sec 


-------------------------------------------------------------------------------
                          DFT DISPERSION CORRECTION                            
                                                                               
                              DFTD3 V3.1  Rev 1                                
                          USING Becke-Johnson damping                          
-------------------------------------------------------------------------------
-------------------------   ----------------
Dispersion correction           -0.000152805
-------------------------   ----------------


-------------------------   --------------------
FINAL SINGLE POINT ENERGY       -76.191322065710
-------------------------   --------------------



           ************************************************************
           *        Program running with 24 parallel MPI-processes    *
           *              working on a common directory               *
           ************************************************************
------------------------------------------------------------------------------
                         ORCA SCF GRADIENT CALCULATION
------------------------------------------------------------------------------

Gradient of the Kohn-Sham DFT energy:
Kohn-Sham wavefunction type      ... RKS
Hartree-Fock exchange scaling    ...    0.000
Number of operators              ...    1
Number of atoms                  ...    3
Basis set dimensions             ...   92
Integral neglect threshold       ... 2.5e-11
Integral primitive cutoff        ... 2.5e-12

Nuclear repulsion gradient       ... done
One Electron Gradient            ... done
Pre-screening matrix             ... done
RI-J gradient                    ... done
Exchange-correlation gradient    ... done
Dispersion correction            ... done

------------------
CARTESIAN GRADIENT
------------------

   1   O   :   -0.000000003    0.000000009    0.173495496
   2   H   :   -0.000000001   -0.090457077   -0.049464088
   3   H   :    0.000000003    0.090457077   -0.049464088

Difference to translation invariance:
           :   -0.0000000006    0.0000000097    0.0745673211

Norm of the cartesian gradient     ...    0.2266253400
RMS gradient                       ...    0.0755417800
MAX gradient                       ...    0.1734954965

-------
TIMINGS
-------

Total SCF gradient time            ...        0.283 sec

One electron gradient       ....       0.018 sec  (  6.3%)
Prescreening matrices       ....       0.012 sec  (  4.1%)
RI-J Coulomb gradient       ....       0.067 sec  ( 23.8%)
XC gradient                 ....       0.019 sec  (  6.8%)
------------------------------------------------------------------------------
                         ORCA GEOMETRY RELAXATION STEP
------------------------------------------------------------------------------

Reading the OPT-File                    .... done
Getting information on internals        .... done
Copying old internal coords+grads       .... done
Making the new internal coordinates     .... (new redundants).... done
Validating the new internal coordinates .... (new redundants).... done
Calculating the B-matrix                .... done
Calculating the G,G- and P matrices     .... done
Transforming gradient to internals      .... done
Projecting the internal gradient        .... done
Number of atoms                         ....   3
Number of internal coordinates          ....   3
Current Energy                          ....   -76.191322066 Eh
Current gradient norm                   ....     0.226625340 Eh/bohr
Maximum allowed component of the step   ....  0.300
Current trust radius                    ....  0.300
Updating the Hessian (BFGS)             .... done
Forming the augmented Hessian           .... done
Diagonalizing the augmented Hessian     .... done
Last element of RFO vector              ....  0.656032869
Lowest eigenvalues of augmented Hessian:
 -0.192632845  0.022731116  0.109487988
Length of the computed step             ....  1.150448941
Warning: the length of the step is outside the trust region - taking restricted step instead
The input lambda is                     ....    -0.192633
   iter:   1  x=   -0.260349  g=   18.216321 f(x)=     1.233533
   iter:   2  x=   -0.351366  g=    5.779297 f(x)=     0.526019
   iter:   3  x=   -0.458294  g=    1.988321 f(x)=     0.212607
   iter:   4  x=   -0.552320  g=    0.805586 f(x)=     0.075746
   iter:   5  x=   -0.597965  g=    0.434411 f(x)=     0.019829
   iter:   6  x=   -0.605113  g=    0.335165 f(x)=     0.002395
   iter:   7  x=   -0.605255  g=    0.322457 f(x)=     0.000046
   iter:   8  x=   -0.605255  g=    0.322211 f(x)=     0.000000
   iter:   9  x=   -0.605255  g=    0.322211 f(x)=     0.000000
The output lambda is                    ....    -0.605255 (9 iterations)
The final length of the internal step   ....  0.300000000
Converting the step to cartesian space:
 Initial RMS(Int)=    0.1732050808
Transforming coordinates:
 Iter   0:  RMS(Cart)=    0.0789377098 RMS(Int)=    0.1728145236
 Iter   1:  RMS(Cart)=    0.0020452925 RMS(Int)=    0.0023246909
 Iter   2:  RMS(Cart)=    0.0001613238 RMS(Int)=    0.0001880488
 Iter   3:  RMS(Cart)=    0.0000106765 RMS(Int)=    0.0000124710
 Iter   4:  RMS(Cart)=    0.0000007012 RMS(Int)=    0.0000008196
 Iter   5:  RMS(Cart)=    0.0000000460 RMS(Int)=    0.0000000537
done
Storing new coordinates                 .... done

                                .--------------------.
          ----------------------|Geometry convergence|-------------------------
          Item                value                   Tolerance       Converged
          ---------------------------------------------------------------------
          Energy change      -0.0392004867            0.0000050000      NO
          RMS gradient        0.0968343093            0.0001000000      NO
          MAX gradient        0.1166359849            0.0003000000      NO
          RMS step            0.1732050808            0.0020000000      NO
          MAX step            0.2095062381            0.0040000000      NO
          ........................................................
          Max(Bonds)      0.1109      Max(Angles)    2.70
          Max(Dihed)        0.00      Max(Improp)    0.00
          ---------------------------------------------------------------------

The optimization has not yet converged - more geometry cycles are needed


    ---------------------------------------------------------------------------
                         Redundant Internal Coordinates
                            (Angstroem and degrees)

        Definition                    Value    dE/dq     Step     New-Value
    ----------------------------------------------------------------------------
     1. B(H   1,O   0)                1.5918  0.116636 -0.1109    1.4810   
     2. B(H   2,O   0)                1.5918  0.116636 -0.1109    1.4810   
     3. A(H   1,O   0,H   2)          111.08 -0.030377    2.70    113.78   
    ----------------------------------------------------------------------------

         *************************************************************
         *                GEOMETRY OPTIMIZATION CYCLE   4            *
         *************************************************************
---------------------------------
CARTESIAN COORDINATES (ANGSTROEM)
---------------------------------
  O      0.000000   -0.000000   -0.077056
  H      0.000000   -1.240498   -0.886046
  H      0.000000    1.240498   -0.886046

----------------------------
CARTESIAN COORDINATES (A.U.)
----------------------------
  NO LB      ZA    FRAG     MASS         X           Y           Z
   0 O     8.0000    0    15.999    0.000000   -0.000000   -0.145614
   1 H     1.0000    0     1.008    0.000000   -2.344202   -1.674385
   2 H     1.0000    0     1.008    0.000000    2.344202   -1.674385

--------------------------------
INTERNAL COORDINATES (ANGSTROEM)
--------------------------------
 O      0   0   0     0.000000000000     0.00000000     0.00000000
 H      1   0   0     1.480979875655     0.00000000     0.00000000
 H      1   2   0     1.480979888549   113.77927549     0.00000000

---------------------------
INTERNAL COORDINATES (A.U.)
---------------------------
 O      0   0   0     0.000000000000     0.00000000     0.00000000
 H      1   0   0     2.798646374837     0.00000000     0.00000000
 H      1   2   0     2.798646399203   113.77927549     0.00000000



           ************************************************************
           *        Program running with 24 parallel MPI-processes    *
           *              working on a common directory               *
           ************************************************************
 One Electron integrals                  ... done
 Pre-screening matrix                    ... done


           ************************************************************
           *        Program running with 24 parallel MPI-processes    *
           *              working on a common directory               *
           ************************************************************

Diagonalization of the overlap matrix:
Smallest eigenvalue                        ... 1.204e-03
Time for diagonalization                   ...    0.004 sec
Threshold for overlap eigenvalues          ... 1.000e-08
Number of eigenvalues below threshold      ... 0
Time for construction of square roots      ...    0.001 sec
Total time needed                          ...    0.005 sec

-------------------
DFT GRID GENERATION
-------------------

General Integration Accuracy     IntAcc      ...  4.670
Radial Grid Type                 RadialGrid  ... Gauss-Chebyshev
Angular Grid (max. acc.)         AngularGrid ... Lebedev-302
Angular grid pruning method      GridPruning ... 3 (G Style)
Weight generation scheme         WeightScheme... Becke
Basis function cutoff            BFCut       ...    1.0000e-11
Integration weight cutoff        WCut        ...    1.0000e-14
Grids for H and He will be reduced by one unit

# of grid points (after initial pruning)     ...  13000 (   0.0 sec)
# of grid points (after weights+screening)   ...  12944 (   0.0 sec)
nearest neighbour list constructed           ...    0.0 sec
Grid point re-assignment to atoms done       ...    0.0 sec
Grid point division into batches done        ...    0.1 sec
Reduced shell lists constructed in    0.1 sec

Total number of grid points                  ...    12944
Total number of batches                      ...      204
Average number of points per batch           ...       63
Average number of grid points per atom       ...     4315
Average number of shells per batch           ...    15.50 (48.44%)
Average number of basis functions per batch  ...    40.90 (44.46%)
Average number of large shells per batch     ...    11.50 (74.19%)
Average number of large basis fcns per batch ...    29.70 (72.62%)
Maximum spatial batch extension              ...  13.13, 17.45, 11.55 au
Average spatial batch extension              ...   0.42,  0.47,  0.44 au

Time for grid setup =    0.069 sec

--------------
SCF ITERATIONS
--------------
ITER       Energy         Delta-E        Max-DP      RMS-DP      [F,P]     Damp
               ***  Starting incremental Fock matrix formation  ***
  0    -76.2326797968   0.000000000000 0.00392611  0.00014106  0.0226888 0.7000
  1    -76.2332321387  -0.000552341881 0.00283566  0.00011574  0.0133846 0.7000
                               ***Turning on DIIS***
  2    -76.2335348520  -0.000302713305 0.00841554  0.00027987  0.0103163 0.0000
                      *** Initiating the SOSCF procedure ***
                           *** Shutting down DIIS ***
                      *** Re-Reading the Fockian *** 
                      *** Removing any level shift *** 
ITER      Energy       Delta-E        Grad      Rot      Max-DP    RMS-DP
  3    -76.23428633  -0.0007514770  0.001581  0.001581  0.001701  0.000066
               *** Restarting incremental Fock matrix formation ***
  4    -76.23428570   0.0000006272  0.001637  0.008406  0.004502  0.000149
  5    -76.23409051   0.0001951948  0.006937  0.006636  0.003522  0.000121
  6    -76.23430032  -0.0002098122  0.000047  0.000054  0.000058  0.000002
  7    -76.23430034  -0.0000000165  0.000026  0.000023  0.000016  0.000001
                 **** Energy Check signals convergence ****
              ***Rediagonalizing the Fockian in SOSCF/NRSCF***

               *****************************************************
               *                     SUCCESS                       *
               *           SCF CONVERGED AFTER   8 CYCLES          *
               *****************************************************

Total Energy       :          -76.23430034 Eh           -2074.44077 eV
  Last Energy change         ...   -6.4050e-09  Tolerance :   1.0000e-08
  Last MAX-Density change    ...    2.8528e-06  Tolerance :   1.0000e-07
             **** THE GBW FILE WAS UPDATED (01_H2O.gbw) ****
             **** DENSITY FILE WAS UPDATED (01_H2O.scfp) ****
             **** ENERGY FILE WAS UPDATED (01_H2O.en.tmp) ****
             **** THE GBW FILE WAS UPDATED (01_H2O.gbw) ****
             **** DENSITY FILE WAS UPDATED (01_H2O.scfp) ****
Total SCF time: 0 days 0 hours 0 min 1 sec 


-------------------------------------------------------------------------------
                          DFT DISPERSION CORRECTION                            
                                                                               
                              DFTD3 V3.1  Rev 1                                
                          USING Becke-Johnson damping                          
-------------------------------------------------------------------------------
-------------------------   ----------------
Dispersion correction           -0.000152238
-------------------------   ----------------


-------------------------   --------------------
FINAL SINGLE POINT ENERGY       -76.234452579727
-------------------------   --------------------



           ************************************************************
           *        Program running with 24 parallel MPI-processes    *
           *              working on a common directory               *
           ************************************************************
------------------------------------------------------------------------------
                         ORCA SCF GRADIENT CALCULATION
------------------------------------------------------------------------------

Gradient of the Kohn-Sham DFT energy:
Kohn-Sham wavefunction type      ... RKS
Hartree-Fock exchange scaling    ...    0.000
Number of operators              ...    1
Number of atoms                  ...    3
Basis set dimensions             ...   92
Integral neglect threshold       ... 2.5e-11
Integral primitive cutoff        ... 2.5e-12

Nuclear repulsion gradient       ... done
One Electron Gradient            ... done
Pre-screening matrix             ... done
RI-J gradient                    ... done
Exchange-correlation gradient    ... done
Dispersion correction            ... done

------------------
CARTESIAN GRADIENT
------------------

   1   O   :    0.000000010   -0.000000003    0.179966876
   2   H   :    0.000000000   -0.100410713   -0.048996449
   3   H   :   -0.000000009    0.100410717   -0.048996449

Difference to translation invariance:
           :    0.0000000010    0.0000000006    0.0819739774

Norm of the cartesian gradient     ...    0.2394869595
RMS gradient                       ...    0.0798289865
MAX gradient                       ...    0.1799668758

-------
TIMINGS
-------

Total SCF gradient time            ...        0.288 sec

One electron gradient       ....       0.006 sec  (  1.9%)
Prescreening matrices       ....       0.011 sec  (  3.7%)
RI-J Coulomb gradient       ....       0.067 sec  ( 23.4%)
XC gradient                 ....       0.022 sec  (  7.6%)
------------------------------------------------------------------------------
                         ORCA GEOMETRY RELAXATION STEP
------------------------------------------------------------------------------

Reading the OPT-File                    .... done
Getting information on internals        .... done
Copying old internal coords+grads       .... done
Making the new internal coordinates     .... (new redundants).... done
Validating the new internal coordinates .... (new redundants).... done
Calculating the B-matrix                .... done
Calculating the G,G- and P matrices     .... done
Transforming gradient to internals      .... done
Projecting the internal gradient        .... done
Number of atoms                         ....   3
Number of internal coordinates          ....   3
Current Energy                          ....   -76.234452580 Eh
Current gradient norm                   ....     0.239486960 Eh/bohr
Maximum allowed component of the step   ....  0.300
Current trust radius                    ....  0.300
Updating the Hessian (BFGS)             .... done
Forming the augmented Hessian           .... done
Diagonalizing the augmented Hessian     .... done
Last element of RFO vector              ....  0.663785755
Lowest eigenvalues of augmented Hessian:
 -0.202020223  0.022731116  0.102221525
Length of the computed step             ....  1.126753271
Warning: the length of the step is outside the trust region - taking restricted step instead
The input lambda is                     ....    -0.202020
   iter:   1  x=   -0.275766  g=   15.995099 f(x)=     1.179573
   iter:   2  x=   -0.374455  g=    5.088420 f(x)=     0.502172
   iter:   3  x=   -0.489224  g=    1.761187 f(x)=     0.202129
   iter:   4  x=   -0.587961  g=    0.721989 f(x)=     0.071287
   iter:   5  x=   -0.633845  g=    0.396528 f(x)=     0.018194
   iter:   6  x=   -0.640473  g=    0.311200 f(x)=     0.002063
   iter:   7  x=   -0.640587  g=    0.300965 f(x)=     0.000034
   iter:   8  x=   -0.640587  g=    0.300794 f(x)=     0.000000
   iter:   9  x=   -0.640587  g=    0.300794 f(x)=     0.000000
The output lambda is                    ....    -0.640587 (9 iterations)
The final length of the internal step   ....  0.300000000
Converting the step to cartesian space:
 Initial RMS(Int)=    0.1732050808
Transforming coordinates:
 Iter   0:  RMS(Cart)=    0.0825442942 RMS(Int)=    0.1730380547
[...]
  60   0.0000       3.785021       102.9957 
  61   0.0000       3.912705       106.4701 
  62   0.0000       4.067090       110.6711 
  63   0.0000       4.157247       113.1244 
  64   0.0000       4.224695       114.9598 
  65   0.0000       4.289916       116.7345 
  66   0.0000       4.303031       117.0914 
  67   0.0000       4.326049       117.7178 
  68   0.0000       4.359352       118.6240 
  69   0.0000       4.451593       121.1340 
  70   0.0000       4.494169       122.2926 
  71   0.0000       5.066499       137.8665 
  72   0.0000       5.144918       140.0003 
  73   0.0000       5.149279       140.1190 
  74   0.0000       5.327383       144.9655 
  75   0.0000       5.384123       146.5094 
  76   0.0000       5.604929       152.5179 
  77   0.0000       5.810769       158.1191 
  78   0.0000       6.300034       171.4326 
  79   0.0000       6.399717       174.1452 
  80   0.0000       6.472434       176.1239 
  81   0.0000       6.749388       183.6602 
  82   0.0000       6.797907       184.9804 
  83   0.0000       6.959124       189.3674 
  84   0.0000       7.021327       191.0600 
  85   0.0000       7.100627       193.2179 
  86   0.0000       7.320488       199.2006 
  87   0.0000       7.373306       200.6379 
  88   0.0000       7.573468       206.0845 
  89   0.0000       7.840865       213.3608 
  90   0.0000       8.484067       230.8632 
  91   0.0000      15.977183       434.7612 

                    ********************************
                    * MULLIKEN POPULATION ANALYSIS *
                    ********************************

-----------------------
MULLIKEN ATOMIC CHARGES
-----------------------
   0 O :   -0.362596
   1 H :    0.181296
   2 H :    0.181300
Sum of atomic charges:    0.0000000

--------------------------------
MULLIKEN REDUCED ORBITAL CHARGES
--------------------------------
  0 O s       :     3.841387  s :     3.841387
      pz      :     1.563691  p :     4.518456
      px      :     1.854792
      py      :     1.099973
      dz2     :     0.001371  d :     0.002106
      dxz     :     0.001908
      dyz     :    -0.000134
      dx2y2   :    -0.001039
      dxy     :     0.000000
      f0      :    -0.000024  f :     0.000648
      f+1     :     0.000003
      f-1     :    -0.000004
      f+2     :     0.000215
      f-2     :     0.000000
      f+3     :     0.000135
      f-3     :     0.000322
  1 H s       :     0.683295  s :     0.683295
      pz      :     0.035502  p :     0.113624
      px      :     0.060163
      py      :     0.017959
      dz2     :     0.002372  d :     0.021785
      dxz     :     0.002240
      dyz     :     0.004831
      dx2y2   :     0.003165
      dxy     :     0.009178
  2 H s       :     0.683292  s :     0.683292
      pz      :     0.035501  p :     0.113623
      px      :     0.060163
      py      :     0.017959
      dz2     :     0.002372  d :     0.021785
      dxz     :     0.002240
      dyz     :     0.004831
      dx2y2   :     0.003165
      dxy     :     0.009178


                     *******************************
                     * LOEWDIN POPULATION ANALYSIS *
                     *******************************

----------------------
LOEWDIN ATOMIC CHARGES
----------------------
   0 O :    1.069509
   1 H :   -0.534758
   2 H :   -0.534751

-------------------------------
LOEWDIN REDUCED ORBITAL CHARGES
-------------------------------
  0 O s       :     2.977617  s :     2.977617
      pz      :     1.328466  p :     3.876636
      px      :     1.400986
      py      :     1.147184
      dz2     :     0.002540  d :     0.064167
      dxz     :     0.000248
      dyz     :     0.039678
      dx2y2   :     0.021700
      dxy     :     0.000000
      f0      :     0.002033  f :     0.012071
      f+1     :     0.000006
      f-1     :     0.000622
      f+2     :     0.004960
      f-2     :     0.000000
      f+3     :     0.000298
      f-3     :     0.004152
  1 H s       :     0.603748  s :     0.603748
      pz      :     0.196323  p :     0.576415
      px      :     0.180442
      py      :     0.199650
      dz2     :     0.059409  d :     0.354595
      dxz     :     0.027939
      dyz     :     0.101874
      dx2y2   :     0.074522
      dxy     :     0.090852
  2 H s       :     0.603746  s :     0.603746
      pz      :     0.196323  p :     0.576411
      px      :     0.180440
      py      :     0.199648
      dz2     :     0.059409  d :     0.354594
      dxz     :     0.027939
      dyz     :     0.101874
      dx2y2   :     0.074522
      dxy     :     0.090851


                      *****************************
                      * MAYER POPULATION ANALYSIS *
                      *****************************

  NA   - Mulliken gross atomic population
  ZA   - Total nuclear charge
  QA   - Mulliken gross atomic charge
  VA   - Mayer's total valence
  BVA  - Mayer's bonded valence
  FA   - Mayer's free valence

  ATOM       NA         ZA         QA         VA         BVA        FA
  0 O      8.3626     8.0000    -0.3626     2.0537     2.0537     0.0000
  1 H      0.8187     1.0000     0.1813     1.0715     1.0715     0.0000
  2 H      0.8187     1.0000     0.1813     1.0715     1.0715     0.0000

  Mayer bond orders larger than 0.100000
B(  0-O ,  1-H ) :   1.0269 B(  0-O ,  2-H ) :   1.0269 

-------
TIMINGS
-------

Total SCF time: 0 days 0 hours 0 min 0 sec 

Total time                  ....       0.772 sec
Sum of individual times     ....       0.639 sec  ( 82.8%)

Fock matrix formation       ....       0.558 sec  ( 72.2%)
  Split-RI-J                ....       0.387 sec  ( 69.3% of F)
  XC integration            ....       0.109 sec  ( 19.6% of F)
    Basis function eval.    ....       0.007 sec  (  6.6% of XC)
    Density eval.           ....       0.010 sec  (  8.9% of XC)
    XC-Functional eval.     ....       0.004 sec  (  3.9% of XC)
    XC-Potential eval.      ....       0.019 sec  ( 17.1% of XC)
Diagonalization             ....       0.001 sec  (  0.2%)
Density matrix formation    ....       0.003 sec  (  0.3%)
Population analysis         ....       0.003 sec  (  0.3%)
Initial guess               ....       0.005 sec  (  0.7%)
Orbital Transformation      ....       0.000 sec  (  0.0%)
Orbital Orthonormalization  ....       0.002 sec  (  0.3%)
DIIS solution               ....       0.000 sec  (  0.0%)
SOSCF solution              ....       0.003 sec  (  0.4%)
Grid generation             ....       0.067 sec  (  8.7%)


-------------------------------------------------------------------------------
                          DFT DISPERSION CORRECTION                            
                                                                               
                              DFTD3 V3.1  Rev 1                                
                          USING Becke-Johnson damping                          
-------------------------------------------------------------------------------
The SCAN functional is recognized
Active option DFTDOPT                   ...         4   

molecular C6(AA) [au] = 44.524003 


            DFT-D V3
 parameters
 s6 scaling factor         :     1.0000 
 a1 scaling factor         :     0.5380 
 s8 scaling factor         :     0.0000 
 a2 scaling factor         :     5.4200 
 ad hoc parameters k1-k3   :    16.0000     1.3333    -4.0000 

 Edisp/kcal,au: -0.049781408766  -0.000079331716 
 E6   /kcal   :  -0.049781409 
 E8   /kcal   :  -0.000000000 
 % E8         :   0.000000000 

-------------------------   ----------------
Dispersion correction           -0.000079332
-------------------------   ----------------


-------------------------   --------------------
FINAL SINGLE POINT ENERGY       -76.419384015085
-------------------------   --------------------

                                *** OPTIMIZATION RUN DONE ***

                            ***************************************
                            *     ORCA property calculations      *
                            ***************************************

                                    ---------------------
                                    Active property flags
                                    ---------------------
   (+) Dipole Moment


------------------------------------------------------------------------------
                       ORCA ELECTRIC PROPERTIES CALCULATION
------------------------------------------------------------------------------

Dipole Moment Calculation                       ... on
Quadrupole Moment Calculation                   ... off
Polarizability Calculation                      ... off
GBWName                                         ... 01_H2O.gbw
Electron density file                           ... 01_H2O.scfp
The origin for moment calculation is the CENTER OF MASS  = ( 0.000000,  0.000000 -0.686684)

-------------
DIPOLE MOMENT
-------------
                                X             Y             Z
Electronic contribution:     -0.00000       0.00000       0.15558
Nuclear contribution   :      0.00000      -0.00000      -0.75922
                        -----------------------------------------
Total Dipole Moment    :     -0.00000       0.00000      -0.60363
                        -----------------------------------------
Magnitude (a.u.)       :      0.60363
Magnitude (Debye)      :      1.53431



--------------------
Rotational spectrum 
--------------------
 
Rotational constants in cm-1:    45.268808    12.302587     9.673614 
Rotational constants in MHz : 1357124.727957 368822.265853 290007.641605 

 Dipole components along the rotational axes: 
x,y,z [a.u.] :    -0.000006    -0.603633    -0.000000 
x,y,z [Debye]:    -0.000016    -1.534314    -0.000000 

 

----------------------------------------------------------------------------
                           ORCA NUMERICAL FREQUENCIES
                              (24-process run)
----------------------------------------------------------------------------

Number of atoms                ... 3
Central differences            ... used
Number of displacements        ... 18
Numerical increment            ... 5.000e-03 bohr
IR-spectrum generation         ... on
Raman-spectrum generation      ... off
Surface Crossing Hessian       ... off

 WARNING: There are more processes than displacements to do
  ====> : Reducing number of processes to   9

The output will be reduced. Please look at the following files:
SCF program output             ... >01_H2O.lastscf
Integral program output        ... >01_H2O.lastint
Gradient program output        ... >01_H2O.lastgrad
Dipole moment program output   ... >01_H2O.lastmom
AutoCI program output          ... >01_H2O.lastautoci


         <<< Energy and Gradient at the input geometry >>>

        <<< Energy and Gradient at displaced geometries >>>
             <<<Displacing   2/coordinate 1 (+)>>>
             <<<Displacing   1/coordinate 1 (+)>>>
             <<<Displacing   3/coordinate 3 (+)>>>
             <<<Displacing   2/coordinate 2 (+)>>>
             <<<Displacing   2/coordinate 3 (+)>>>
             <<<Displacing   3/coordinate 1 (+)>>>
             <<<Displacing   3/coordinate 2 (+)>>>
             <<<Displacing   1/coordinate 2 (+)>>>
             <<<Displacing   1/coordinate 3 (+)>>>
             <<<Displacing   1/coordinate 3 (-)>>>
             <<<Displacing   1/coordinate 1 (-)>>>
             <<<Displacing   3/coordinate 1 (-)>>>
             <<<Displacing   1/coordinate 2 (-)>>>
             <<<Displacing   2/coordinate 3 (-)>>>
             <<<Displacing   3/coordinate 3 (-)>>>
             <<<Displacing   2/coordinate 1 (-)>>>
             <<<Displacing   3/coordinate 2 (-)>>>
             <<<Displacing   2/coordinate 2 (-)>>>

-----------------------
VIBRATIONAL FREQUENCIES
-----------------------

Scaling factor for frequencies =  1.000000000 (already applied!)

   0:         0.00 cm**-1
   1:         0.00 cm**-1
   2:         0.00 cm**-1
   3:         0.00 cm**-1
   4:         0.00 cm**-1
   5:         0.00 cm**-1
   6:      1302.94 cm**-1
   7:      3981.43 cm**-1
   8:      4224.43 cm**-1


------------
NORMAL MODES
------------

These modes are the cartesian displacements weighted by the diagonal matrix
M(i,i)=1/sqrt(m[i]) where m[i] is the mass of the displaced atom
Thus, these vectors are normalized but *not* orthogonal

                  0          1          2          3          4          5    
      0       0.000000   0.000000   0.000000   0.000000   0.000000   0.000000
      1       0.000000   0.000000   0.000000   0.000000   0.000000   0.000000
      2       0.000000   0.000000   0.000000   0.000000   0.000000   0.000000
      3       0.000000   0.000000   0.000000   0.000000   0.000000   0.000000
      4       0.000000   0.000000   0.000000   0.000000   0.000000   0.000000
      5       0.000000   0.000000   0.000000   0.000000   0.000000   0.000000
      6       0.000000   0.000000   0.000000   0.000000   0.000000   0.000000
      7       0.000000   0.000000   0.000000   0.000000   0.000000   0.000000
      8       0.000000   0.000000   0.000000   0.000000   0.000000   0.000000
                   6          7          8    
      0       0.000000   0.000000   0.000000
      1       0.000000   0.000006  -0.077731
      2       0.076478  -0.041380  -0.000003
      3       0.000000   0.000000   0.000000
      4       0.358766   0.625497   0.616923
      5      -0.606930   0.328363   0.341269
      6       0.000000   0.000000   0.000000
      7      -0.358768  -0.625588   0.616821
      8      -0.606926   0.328418  -0.341219


-----------
IR SPECTRUM  
-----------

 Mode    freq (cm**-1)   T**2         TX         TY         TZ
-------------------------------------------------------------------
   6:      1302.94  111.769186  (  0.000049  -0.000042 -10.572095)
   7:      3981.43    1.777585  (  0.000012  -0.000813   1.333261)
   8:      4224.43  107.476336  (  0.000004  10.367079   0.000061)

The first frequency considered to be a vibration is 6
The total number of vibrations considered is 3


--------------------------
THERMOCHEMISTRY AT 298.15K
--------------------------

Temperature         ... 298.15 K
Pressure            ... 1.00 atm
Total Mass          ... 18.02 AMU

Throughout the following assumptions are being made:
  (1) The electronic state is orbitally nondegenerate
  (2) There are no thermally accessible electronically excited states
  (3) Hindered rotations indicated by low frequency modes are not
      treated as such but are treated as vibrations and this may
      cause some error
  (4) All equations used are the standard statistical mechanics
      equations for an ideal gas
  (5) All vibrations are strictly harmonic

freq.    1302.94  E(vib)   ...       0.01 
freq.    3981.43  E(vib)   ...       0.00 
freq.    4224.43  E(vib)   ...       0.00 

------------
INNER ENERGY
------------

The inner energy is: U= E(el) + E(ZPE) + E(vib) + E(rot) + E(trans)
    E(el)   - is the total energy from the electronic structure calculation
              = E(kin-el) + E(nuc-el) + E(el-el) + E(nuc-nuc)
    E(ZPE)  - the the zero temperature vibrational energy from the frequency calculation
    E(vib)  - the the finite temperature correction to E(ZPE) due to population
              of excited vibrational states
    E(rot)  - is the rotational thermal energy
    E(trans)- is the translational thermal energy

Summary of contributions to the inner energy U:
Electronic energy                ...    -76.41938401 Eh
Zero point energy                ...      0.02166263 Eh      13.59 kcal/mol
Thermal vibrational correction   ...      0.00001106 Eh       0.01 kcal/mol
Thermal rotational correction    ...      0.00141627 Eh       0.89 kcal/mol
Thermal translational correction ...      0.00141627 Eh       0.89 kcal/mol
-----------------------------------------------------------------------
Total thermal energy                    -76.39487778 Eh


Summary of corrections to the electronic energy:
(perhaps to be used in another calculation)
Total thermal correction                  0.00284360 Eh       1.78 kcal/mol
Non-thermal (ZPE) correction              0.02166263 Eh      13.59 kcal/mol
-----------------------------------------------------------------------
Total correction                          0.02450624 Eh      15.38 kcal/mol


--------
ENTHALPY
--------

The enthalpy is H = U + kB*T
                kB is Boltzmann's constant
Total free energy                 ...    -76.39487778 Eh 
Thermal Enthalpy correction       ...      0.00094421 Eh       0.59 kcal/mol
-----------------------------------------------------------------------
Total Enthalpy                    ...    -76.39393357 Eh


Note: Rotational entropy computed according to Herzberg 
Infrared and Raman Spectra, Chapter V,1, Van Nostrand Reinhold, 1945 
Point Group:  Cs, Symmetry Number:   1  
Rotational constants in cm-1:    45.268808    12.302587     9.673614 

Vibrational entropy computed according to the QRRHO of S. Grimme
Chem.Eur.J. 2012 18 9955


-------
ENTROPY
-------

The entropy contributions are T*S = T*(S(el)+S(vib)+S(rot)+S(trans))
     S(el)   - electronic entropy
     S(vib)  - vibrational entropy
     S(rot)  - rotational entropy
     S(trans)- translational entropy
The entropies will be listed as mutliplied by the temperature to get
units of energy

Electronic entropy                ...      0.00000000 Eh      0.00 kcal/mol
Vibrational entropy               ...      0.00001282 Eh      0.01 kcal/mol
Rotational entropy                ...      0.00545469 Eh      3.42 kcal/mol
Translational entropy             ...      0.01644380 Eh     10.32 kcal/mol
-----------------------------------------------------------------------
Final entropy term                ...      0.02191131 Eh     13.75 kcal/mol

In case the symmetry of your molecule has not been determined correctly
or in case you have a reason to use a different symmetry number we print 
out the resulting rotational entropy values for sn=1,12 :
 --------------------------------------------------------
|  sn= 1 | S(rot)=       0.00545469 Eh      3.42 kcal/mol|
|  sn= 2 | S(rot)=       0.00480023 Eh      3.01 kcal/mol|
|  sn= 3 | S(rot)=       0.00441740 Eh      2.77 kcal/mol|
|  sn= 4 | S(rot)=       0.00414578 Eh      2.60 kcal/mol|
|  sn= 5 | S(rot)=       0.00393509 Eh      2.47 kcal/mol|
|  sn= 6 | S(rot)=       0.00376294 Eh      2.36 kcal/mol|
|  sn= 7 | S(rot)=       0.00361740 Eh      2.27 kcal/mol|
|  sn= 8 | S(rot)=       0.00349132 Eh      2.19 kcal/mol|
|  sn= 9 | S(rot)=       0.00338011 Eh      2.12 kcal/mol|
|  sn=10 | S(rot)=       0.00328063 Eh      2.06 kcal/mol|
|  sn=11 | S(rot)=       0.00319064 Eh      2.00 kcal/mol|
|  sn=12 | S(rot)=       0.00310849 Eh      1.95 kcal/mol|
 --------------------------------------------------------


-------------------
GIBBS FREE ENERGY
-------------------

The Gibbs free energy is G = H - T*S

Total enthalpy                    ...    -76.39393357 Eh 
Total entropy correction          ...     -0.02191131 Eh    -13.75 kcal/mol
-----------------------------------------------------------------------
Final Gibbs free energy         ...    -76.41584488 Eh

For completeness - the Gibbs free energy minus the electronic energy
G-E(el)                           ...      0.00353913 Eh      2.22 kcal/mol


Total Time for Numerical Frequencies  :        10.721 sec

Timings for individual modules:

Sum of individual times         ...       43.217 sec (=   0.720 min)
GTO integral calculation        ...        8.898 sec (=   0.148 min)  20.6 %
SCF iterations                  ...       23.555 sec (=   0.393 min)  54.5 %
SCF Gradient evaluation         ...       10.148 sec (=   0.169 min)  23.5 %
Geometry relaxation             ...        0.617 sec (=   0.010 min)   1.4 %
                             ****ORCA TERMINATED NORMALLY****
TOTAL RUN TIME: 0 days 0 hours 0 minutes 53 seconds 613 msec
