
                                 *****************
                                 * O   R   C   A *
                                 *****************

           --- An Ab Initio, DFT and Semiempirical electronic structure package ---

                  #######################################################
                  #                        -***-                        #
                  #          Department of theory and spectroscopy      #
                  #               Directorship: Frank Neese             #
                  #        Max Planck Institute fuer Kohlenforschung    #
                  #                Kaiser Wilhelm Platz 1               #
                  #                 D-45470 Muelheim/Ruhr               #
                  #                      Germany                        #
                  #                                                     #
                  #                  All rights reserved                #
                  #                        -***-                        #
                  #######################################################


                         Program Version 4.2.0 -  RELEASE  -


 With contributions from (in alphabetic order):
   Daniel Aravena         : Magnetic Suceptibility
   Michael Atanasov       : Ab Initio Ligand Field Theory (pilot matlab implementation)
   Alexander A. Auer      : GIAO ZORA, VPT2
   Ute Becker             : Parallelization
   Giovanni Bistoni       : ED, misc. LED, open-shell LED, HFLED
   Martin Brehm           : Molecular dynamics
   Dmytro Bykov           : SCF Hessian
   Vijay G. Chilkuri      : MRCI spin determinant printing, contributions to CSF-ICE
   Dipayan Datta          : RHF DLPNO-CCSD density
   Achintya Kumar Dutta   : EOM-CC, STEOM-CC
   Dmitry Ganyushin       : Spin-Orbit,Spin-Spin,Magnetic field MRCI
   Miquel Garcia          : C-PCM Hessian, Gaussian charge scheme
   Yang Guo               : DLPNO-NEVPT2, CIM, IAO-localization
   Andreas Hansen         : Spin unrestricted coupled pair/coupled cluster methods
   Benjamin Helmich-Paris : CASSCF linear response (MC-RPA)
   Lee Huntington         : MR-EOM, pCC
   Robert Izsak           : Overlap fitted RIJCOSX, COSX-SCS-MP3, EOM
   Christian Kollmar      : KDIIS, OOCD, Brueckner-CCSD(T), CCSD density
   Simone Kossmann        : Meta GGA functionals, TD-DFT gradient, OOMP2, MP2 Hessian
   Martin Krupicka        : AUTO-CI
   Lucas Lang             : DCDCAS
   Dagmar Lenk            : GEPOL surface, SMD
   Dimitrios Liakos       : Extrapolation schemes; Compound Job, initial MDCI parallelization
   Dimitrios Manganas     : Further ROCIS development; embedding schemes
   Dimitrios Pantazis     : SARC Basis sets
   Taras Petrenko         : DFT Hessian,TD-DFT gradient, ASA, ECA, R-Raman, ABS, FL, XAS/XES, NRVS
   Peter Pinski           : DLPNO-MP2, DLPNO-MP2 Gradient
   Christoph Reimann      : Effective Core Potentials
   Marius Retegan         : Local ZFS, SOC
   Christoph Riplinger    : Optimizer, TS searches, QM/MM, DLPNO-CCSD(T), (RO)-DLPNO pert. Triples
   Tobias Risthaus        : Range-separated hybrids, TD-DFT gradient, RPA, STAB
   Michael Roemelt        : Original ROCIS implementation
   Masaaki Saitow         : Open-shell DLPNO-CCSD energy and density
   Barbara Sandhoefer     : DKH picture change effects
   Avijit Sen             : IP-ROCIS
   Kantharuban Sivalingam : CASSCF convergence, NEVPT2, FIC-MRCI
   Bernardo de Souza      : ESD, SOC TD-DFT
   Georgi Stoychev        : AutoAux, RI-MP2 NMR
   Willem Van den Heuvel  : Paramagnetic NMR
   Boris Wezisla          : Elementary symmetry handling
   Frank Wennmohs         : Technical directorship


 We gratefully acknowledge several colleagues who have allowed us to
 interface, adapt or use parts of their codes:
   Stefan Grimme, W. Hujo, H. Kruse,             : VdW corrections, initial TS optimization,
                  C. Bannwarth                     DFT functionals, gCP, sTDA/sTD-DF
   Ed Valeev, F. Pavosevic, A. Kumar             : LibInt (2-el integral package), F12 methods
   Garnet Chan, S. Sharma, J. Yang, R. Olivares  : DMRG
   Ulf Ekstrom                                   : XCFun DFT Library
   Mihaly Kallay                                 : mrcc  (arbitrary order and MRCC methods)
   Andreas Klamt, Michael Diedenhofen            : otool_cosmo (COSMO solvation model)
   Jiri Pittner, Ondrej Demel                    : Mk-CCSD
   Frank Weinhold                                : gennbo (NPA and NBO analysis)
   Christopher J. Cramer and Donald G. Truhlar   : smd solvation model
   Lars Goerigk                                  : TD-DFT with DH, B97 family of functionals
   V. Asgeirsson, H. Jonsson                     : NEB implementation
   FAccTs GmbH                                   : IRC, NEB, NEB-TS, Multilevel, MM, QM/MM, CI optimization
   S Lehtola, MJT Oliveira, MAL Marques          : LibXC Library


 Your calculation uses the libint2 library for the computation of 2-el integrals
 For citations please refer to: http://libint.valeyev.net

 Your ORCA version has been built with support for libXC version: 4.2.3
 For citations please refer to: https://tddft.org/programs/libxc/

 This ORCA versions uses:
   CBLAS   interface :  Fast vector & matrix operations
   LAPACKE interface :  Fast linear algebra routines
   SCALAPACK package :  Parallel linear algebra routines


Your calculation utilizes the atom-pairwise dispersion correction
with the Becke-Johnson damping scheme (D3BJ)
Cite in your paper:
S.Grimme, S.Ehrlich, L.Goerigk, J Comput Chem, (2011), 32, 1456–1465 
S.Grimme, J.Antony, S.Ehrlich and H.Krieg, J.Chem.Phys., 132, (2010), 154104 
   

----- Orbital basis set information -----
Your calculation utilizes the basis: aug-cc-pV(T+d)Z 
             Al - Ar: T.H. Dunning, Jr., K. A. Peterson and A. K. Wilson, J. Chem. Phys.
                      114, 9244 (2001)

----- AuxJ basis set information -----
Your calculation utilizes the auxiliary basis: def2/J
   F. Weigend, Phys. Chem. Chem. Phys. 8, 1057 (2006).

================================================================================
                                        WARNINGS
                       Please study these warnings very carefully!
================================================================================


WARNING: Geometry Optimization
  ===> : Switching off AutoStart
         For restart on a previous wavefunction, please use MOREAD

WARNING: The SCAN functional is very grid-sensitive!
         Use at least GRID5 and a higher intacc

INFO   : the flag for use of LIBINT has been found!

================================================================================
                                       INPUT FILE
================================================================================
NAME = 02_H2O_2.in
|  1> #
|  2> # 02_H2O_2 scanfunc/aug-cc-pvt(+d)z
|  3> #
|  4> ! scanfunc d3bj aug-cc-pvt(+d)z def2/j grid4 nofinalgrid opt xyzfile numfreq
|  5> 
|  6> *xyz 0 1
|  7> O	0.12629641	2.81863838	0
|  8> H	-1.55012056	3.50228598	0
|  9> H	-0.11213325	1.01044862	0
| 10> O	-0.11743248	-2.68035303	0
| 11> H	0.7607884	-3.35371171	-1.4365769
| 12> H	0.7607884	-3.35371171	1.4365769
| 13> *
| 14> 
| 15> %maxcore 5000
| 16> 
| 17> %pal
| 18> nprocs 24
| 19> end
| 20> 
| 21> 
| 22>                          ****END OF INPUT****
================================================================================

                       *****************************
                       * Geometry Optimization Run *
                       *****************************

Geometry optimization settings:
Update method            Update   .... BFGS
Choice of coordinates    CoordSys .... Z-matrix Internals
Initial Hessian          InHess   .... Almoef's Model

Convergence Tolerances:
Energy Change            TolE     ....  5.0000e-06 Eh
Max. Gradient            TolMAXG  ....  3.0000e-04 Eh/bohr
RMS Gradient             TolRMSG  ....  1.0000e-04 Eh/bohr
Max. Displacement        TolMAXD  ....  4.0000e-03 bohr
RMS Displacement         TolRMSD  ....  2.0000e-03 bohr
Strict Convergence                ....  False
------------------------------------------------------------------------------
                        ORCA OPTIMIZATION COORDINATE SETUP
------------------------------------------------------------------------------

The optimization will be done in new redundant internal coordinates
Making redundant internal coordinates   ...  (new redundants) done
Evaluating the initial hessian          ...  (Almloef) done
Evaluating the coordinates              ...  done
Calculating the B-matrix                .... done
Calculating the G-matrix                .... done
Diagonalizing the G-matrix              .... done
The first mode is                       ....    1
The number of degrees of freedom        ....   12

    -----------------------------------------------------------------
                    Redundant Internal Coordinates


    -----------------------------------------------------------------
         Definition                    Initial Value    Approx d2E/dq
    -----------------------------------------------------------------
      1. B(H   1,O   0)                  1.8105         0.022862   
      2. B(H   2,O   0)                  1.8238         0.021765   
      3. B(O   3,H   2)                  3.6908         0.000023   
      4. B(H   4,O   3)                  1.8134         0.022616   
      5. B(H   5,O   3)                  1.8134         0.022616   
      6. A(H   1,O   0,H   2)          104.6740         0.144976   
      7. A(O   0,H   2,O   3)          172.5705         0.100722   
      8. A(H   2,O   3,H   4)          111.7543         0.100824   
      9. A(H   4,O   3,H   5)          104.7829         0.145326   
     10. A(H   2,O   3,H   5)          111.7543         0.100824   
     11. D(O   3,H   2,O   0,H   1)    180.0000         0.001722   
     12. D(H   5,O   3,H   2,O   0)     58.5333         0.001500   
     13. D(H   4,O   3,H   2,O   0)    -58.5333         0.001500   
    -----------------------------------------------------------------

Number of atoms                         .... 6
Number of degrees of freedom            .... 13

         *************************************************************
         *                GEOMETRY OPTIMIZATION CYCLE   1            *
         *************************************************************
---------------------------------
CARTESIAN COORDINATES (ANGSTROEM)
---------------------------------
  O      0.126296    2.818638    0.000000
  H     -1.550121    3.502286    0.000000
  H     -0.112133    1.010449    0.000000
  O     -0.117432   -2.680353    0.000000
  H      0.760788   -3.353712   -1.436577
  H      0.760788   -3.353712    1.436577

----------------------------
CARTESIAN COORDINATES (A.U.)
----------------------------
  NO LB      ZA    FRAG     MASS         X           Y           Z
   0 O     8.0000    0    15.999    0.238666    5.326455    0.000000
   1 H     1.0000    0     1.008   -2.929303    6.618361    0.000000
   2 H     1.0000    0     1.008   -0.211901    1.909471    0.000000
   3 O     8.0000    0    15.999   -0.221915   -5.065133    0.000000
   4 H     1.0000    0     1.008    1.437682   -6.337597   -2.714737
   5 H     1.0000    0     1.008    1.437682   -6.337597    2.714737

--------------------------------
INTERNAL COORDINATES (ANGSTROEM)
--------------------------------
 O      0   0   0     0.000000000000     0.00000000     0.00000000
 H      1   0   0     1.810455163292     0.00000000     0.00000000
 H      1   2   0     1.823841799865   104.67403357     0.00000000
 O      3   1   2     3.690805454299   172.57052396   180.00000000
 H      4   3   1     1.813404812945   111.75429995   301.46668203
 H      4   3   1     1.813404812945   111.75429995    58.53331797

---------------------------
INTERNAL COORDINATES (A.U.)
---------------------------
 O      0   0   0     0.000000000000     0.00000000     0.00000000
 H      1   0   0     3.421264436365     0.00000000     0.00000000
 H      1   2   0     3.446561513344   104.67403357     0.00000000
 O      3   1   2     6.974611522207   172.57052396   180.00000000
 H      4   3   1     3.426838466401   111.75429995   301.46668203
 H      4   3   1     3.426838466401   111.75429995    58.53331797

---------------------
BASIS SET INFORMATION
---------------------
There are 2 groups of distinct atoms

 Group   1 Type O   : 19s6p3d2f contracted to 5s4p3d2f pattern {88111/3111/111/11}
 Group   2 Type H   : 6s3p2d contracted to 4s3p2d pattern {3111/111/11}

Atom   0O    basis set group =>   1
Atom   1H    basis set group =>   2
Atom   2H    basis set group =>   2
Atom   3O    basis set group =>   1
Atom   4H    basis set group =>   2
Atom   5H    basis set group =>   2
---------------------------------
AUXILIARY/J BASIS SET INFORMATION
---------------------------------
There are 2 groups of distinct atoms

 Group   1 Type O   : 12s5p4d2f1g contracted to 6s4p3d1f1g pattern {711111/2111/211/2/1}
 Group   2 Type H   : 5s2p1d contracted to 3s1p1d pattern {311/2/1}

Atom   0O    basis set group =>   1
Atom   1H    basis set group =>   2
Atom   2H    basis set group =>   2
Atom   3O    basis set group =>   1
Atom   4H    basis set group =>   2
Atom   5H    basis set group =>   2


           ************************************************************
           *        Program running with 24 parallel MPI-processes    *
           *              working on a common directory               *
           ************************************************************
------------------------------------------------------------------------------
                           ORCA GTO INTEGRAL CALCULATION
                           -- RI-GTO INTEGRALS CHOSEN --
------------------------------------------------------------------------------

                         BASIS SET STATISTICS AND STARTUP INFO

Gaussian basis set:
 # of primitive gaussian shells          ...  104
 # of primitive gaussian functions       ...  232
 # of contracted shells                  ...   64
 # of contracted basis functions         ...  184
 Highest angular momentum                ...    3
 Maximum contraction depth               ...    8
Auxiliary gaussian basis set:
 # of primitive gaussian shells          ...   80
 # of primitive gaussian functions       ...  204
 # of contracted shells                  ...   50
 # of contracted aux-basis functions     ...  142
 Highest angular momentum                ...    4
 Maximum contraction depth               ...    7
Ratio of auxiliary to basis functions    ...  0.77
Integral package used                  ... LIBINT
 One Electron integrals                  ... done
 Ordering auxiliary basis shells         ... done
 Integral threshhold             Thresh  ...  2.500e-11
 Primitive cut-off               TCut    ...  2.500e-12
 Pre-screening matrix                    ... done
 Shell pair data                         ... 
 Ordering of the shell pairs             ... done (   0.000 sec) 1773 of 2080 pairs
 Determination of significant pairs      ... done (   0.000 sec)
 Creation of shell pair data             ... done (   0.000 sec)
 Storage of shell pair data              ... done (   0.007 sec)
 Shell pair data done in (   0.008 sec)
 Computing two index integrals           ... done
 Cholesky decomposition of the V-matrix  ... done


Timings:
 Total evaluation time                   ...   0.170 sec (  0.003 min)
 One electron matrix time                ...   0.019 sec (  0.000 min) = 11.1%
 Schwartz matrix evaluation time         ...   0.124 sec (  0.002 min) = 72.9%
 Two index repulsion integral time       ...   0.001 sec (  0.000 min) =  0.3%
 Cholesky decomposition of V             ...   0.001 sec (  0.000 min) =  0.6%
 Three index repulsion integral time     ...   0.000 sec (  0.000 min) =  0.0%



           ************************************************************
           *        Program running with 24 parallel MPI-processes    *
           *              working on a common directory               *
           ************************************************************
-------------------------------------------------------------------------------
                                 ORCA SCF
-------------------------------------------------------------------------------

------------
SCF SETTINGS
------------
Hamiltonian:
 Density Functional     Method          .... DFT(GTOs)
 Exchange Functional    Exchange        .... SCAN
 Correlation Functional Correlation     .... SCAN
 Gradients option       PostSCFGGA      .... off
   Density functional embedding theory  .... OFF
   NL short-range parameter             ....  6.400000
 RI-approximation to the Coulomb term is turned on
   Number of auxiliary basis functions  .... 142


General Settings:
 Integral files         IntName         .... 02_H2O_2
 Hartree-Fock type      HFTyp           .... RHF
 Total Charge           Charge          ....    0
 Multiplicity           Mult            ....    1
 Number of Electrons    NEL             ....   20
 Basis Dimension        Dim             ....  184
 Nuclear Repulsion      ENuc            ....     19.3626333336 Eh

Convergence Acceleration:
 DIIS                   CNVDIIS         .... on
   Start iteration      DIISMaxIt       ....    12
   Startup error        DIISStart       ....  0.200000
   # of expansion vecs  DIISMaxEq       ....     5
   Bias factor          DIISBfac        ....   1.050
   Max. coefficient     DIISMaxC        ....  10.000
 Newton-Raphson         CNVNR           .... off
 SOSCF                  CNVSOSCF        .... on
   Start iteration      SOSCFMaxIt      ....   150
   Startup grad/error   SOSCFStart      ....  0.003300
 Level Shifting         CNVShift        .... on
   Level shift para.    LevelShift      ....    0.2500
   Turn off err/grad.   ShiftErr        ....    0.0010
 Zerner damping         CNVZerner       .... off
 Static damping         CNVDamp         .... on
   Fraction old density DampFac         ....    0.7000
   Max. Damping (<1)    DampMax         ....    0.9800
   Min. Damping (>=0)   DampMin         ....    0.0000
   Turn off err/grad.   DampErr         ....    0.1000
 Fernandez-Rico         CNVRico         .... off

SCF Procedure:
 Maximum # iterations   MaxIter         ....   125
 SCF integral mode      SCFMode         .... Direct
   Integral package                     .... LIBINT
 Reset frequency        DirectResetFreq ....    20
 Integral Threshold     Thresh          ....  2.500e-11 Eh
 Primitive CutOff       TCut            ....  2.500e-12 Eh

Convergence Tolerance:
 Convergence Check Mode ConvCheckMode   .... Total+1el-Energy
 Convergence forced     ConvForced      .... 0
 Energy Change          TolE            ....  1.000e-08 Eh
 1-El. energy change                    ....  1.000e-05 Eh
 Orbital Gradient       TolG            ....  1.000e-05
 Orbital Rotation angle TolX            ....  1.000e-05
 DIIS Error             TolErr          ....  5.000e-07


Diagonalization of the overlap matrix:
Smallest eigenvalue                        ... 2.067e-03
Time for diagonalization                   ...    0.007 sec
Threshold for overlap eigenvalues          ... 1.000e-08
Number of eigenvalues below threshold      ... 0
Time for construction of square roots      ...    0.003 sec
Total time needed                          ...    0.011 sec

-------------------
DFT GRID GENERATION
-------------------

General Integration Accuracy     IntAcc      ...  4.670
Radial Grid Type                 RadialGrid  ... Gauss-Chebyshev
Angular Grid (max. acc.)         AngularGrid ... Lebedev-302
Angular grid pruning method      GridPruning ... 3 (G Style)
Weight generation scheme         WeightScheme... Becke
Basis function cutoff            BFCut       ...    1.0000e-11
Integration weight cutoff        WCut        ...    1.0000e-14
Grids for H and He will be reduced by one unit

# of grid points (after initial pruning)     ...  26000 (   0.0 sec)
# of grid points (after weights+screening)   ...  25747 (   0.0 sec)
nearest neighbour list constructed           ...    0.0 sec
Grid point re-assignment to atoms done       ...    0.0 sec
Grid point division into batches done        ...    0.1 sec
Reduced shell lists constructed in    0.1 sec

Total number of grid points                  ...    25747
Total number of batches                      ...      405
Average number of points per batch           ...       63
Average number of grid points per atom       ...     4291
Average number of shells per batch           ...    26.33 (41.15%)
Average number of basis functions per batch  ...    67.33 (36.59%)
Average number of large shells per batch     ...    19.17 (72.78%)
Average number of large basis fcns per batch ...    46.83 (69.55%)
Maximum spatial batch extension              ...  12.44, 14.34, 16.88 au
Average spatial batch extension              ...   0.31,  0.35,  0.36 au

Time for grid setup =    0.137 sec

------------------------------
INITIAL GUESS: MODEL POTENTIAL
------------------------------
Loading Hartree-Fock densities                     ... done
Calculating cut-offs                               ... done
Setting up the integral package                    ... done
Initializing the effective Hamiltonian             ... done
Starting the Coulomb interaction                   ... done (   0.0 sec)
Reading the grid                                   ... done
Mapping shells                                     ... done
Starting the XC term evaluation                    ... done (   0.0 sec)
  promolecular density results
     # of electrons  =     19.998065321
     EX              =    -18.747375694
     EC              =     -0.305829101
     EX+EC           =    -19.053204796
Transforming the Hamiltonian                       ... done (   0.0 sec)
Diagonalizing the Hamiltonian                      ... done (   0.0 sec)
Back transforming the eigenvectors                 ... done (   0.0 sec)
Now organizing SCF variables                       ... done
                      ------------------
                      INITIAL GUESS DONE (   0.2 sec)
                      ------------------
--------------
SCF ITERATIONS
--------------
ITER       Energy         Delta-E        Max-DP      RMS-DP      [F,P]     Damp
               ***  Starting incremental Fock matrix formation  ***
  0   -150.9059247496   0.000000000000 0.80254774  0.00971777  0.8138281 0.7000
  1   -151.6718012455  -0.765876495936 0.23638530  0.00324186  0.1500819 0.7000
  2   -151.6845684140  -0.012767168502 0.17003419  0.00213633  0.2022435 0.7000
                               ***Turning on DIIS***
  3   -151.8923877970  -0.207819382951 0.39760901  0.00512236  0.0846735 0.0000
  4   -151.9845221937  -0.092134396696 0.00886955  0.00019910  0.3844389 0.7000
  5   -152.0192827795  -0.034760585797 0.01042039  0.00021843  0.3458968 0.7000
  6   -152.0558214563  -0.036538676813 0.01016862  0.00020669  0.3052408 0.7000
  7   -152.0885101857  -0.032688729431 0.00954432  0.00019258  0.2681418 0.7000
  8   -152.1169868786  -0.028476692900 0.02493943  0.00051533  0.2347352 0.7000
  9   -152.1807651828  -0.063778304133 0.01747002  0.00038889  0.1388229 0.7000
 10   -152.2096807787  -0.028915595962 0.03537211  0.00083581  0.0769910 0.0000
 11   -152.2273297139  -0.017648935185 0.00651018  0.00012299  0.0417064 0.0000
 12   -152.2303630479  -0.003033334017 0.00317605  0.00007526  0.0242605 0.0000
 13   -152.2314254783  -0.001062430340 0.00257799  0.00005290  0.0148827 0.0000
 14   -152.2317580397  -0.000332561427 0.00200485  0.00004063  0.0103174 0.0000
 15   -152.2319008948  -0.000142855104 0.00081070  0.00001895  0.0046829 0.0000
                      *** Initiating the SOSCF procedure ***
                           *** Shutting down DIIS ***
                      *** Re-Reading the Fockian *** 
                      *** Removing any level shift *** 
ITER      Energy       Delta-E        Grad      Rot      Max-DP    RMS-DP
 16   -152.23193783  -0.0000369307  0.000301  0.000301  0.000291  0.000009
               *** Restarting incremental Fock matrix formation ***
 17   -152.23194469  -0.0000068693  0.000612  0.004826  0.001913  0.000051
 18   -152.23184645   0.0000982488  0.004118  0.003905  0.001538  0.000040
 19   -152.23194857  -0.0001021195  0.000039  0.000396  0.000226  0.000004
 20   -152.23194851   0.0000000564  0.000089  0.000204  0.000123  0.000003
 21   -152.23194846   0.0000000465  0.000139  0.000410  0.000239  0.000005
 22   -152.23194841   0.0000000504  0.000137  0.000367  0.000192  0.000003
 23   -152.23194860  -0.0000001915  0.000025  0.000189  0.000066  0.000001
 24   -152.23194862  -0.0000000146  0.000011  0.000088  0.000028  0.000001
                 **** Energy Check signals convergence ****
              ***Rediagonalizing the Fockian in SOSCF/NRSCF***

               *****************************************************
               *                     SUCCESS                       *
               *           SCF CONVERGED AFTER  25 CYCLES          *
               *****************************************************


----------------
TOTAL SCF ENERGY
----------------

Total Energy       :         -152.23194862 Eh           -4142.44192 eV

Components:
Nuclear Repulsion  :           19.36263333 Eh             526.88404 eV
Electronic Energy  :         -171.59458195 Eh           -4669.32596 eV
One Electron Energy:         -248.51754215 Eh           -6762.50612 eV
Two Electron Energy:           76.92296020 Eh            2093.18016 eV

Virial components:
Potential Energy   :         -302.37634521 Eh           -8228.07866 eV
Kinetic Energy     :          150.14439658 Eh            4085.63674 eV
Virial Ratio       :            2.01390363


DFT components:
N(Alpha)           :        9.999998820377 electrons
N(Beta)            :        9.999998820377 electrons
N(Total)           :       19.999997640754 electrons
E(X)               :      -17.131294049046 Eh       
E(C)               :       -0.599465447881 Eh       
E(XC)              :      -17.730759496928 Eh       
DFET-embed. en.    :        0.000000000000 Eh       

---------------
SCF CONVERGENCE
---------------

  Last Energy change         ...   -2.4821e-09  Tolerance :   1.0000e-08
  Last MAX-Density change    ...    3.4018e-06  Tolerance :   1.0000e-07
  Last RMS-Density change    ...    7.0122e-08  Tolerance :   5.0000e-09
  Last Orbital Gradient      ...    2.2316e-06  Tolerance :   1.0000e-05
  Last Orbital Rotation      ...    8.2352e-06  Tolerance :   1.0000e-05

             **** THE GBW FILE WAS UPDATED (02_H2O_2.gbw) ****
             **** DENSITY FILE WAS UPDATED (02_H2O_2.scfp) ****
             **** ENERGY FILE WAS UPDATED (02_H2O_2.en.tmp) ****
             **** THE GBW FILE WAS UPDATED (02_H2O_2.gbw) ****
             **** DENSITY FILE WAS UPDATED (02_H2O_2.scfp) ****
----------------
ORBITAL ENERGIES
----------------

  NO   OCC          E(Eh)            E(eV) 
   0   2.0000     -19.046813      -518.2901 
   1   2.0000     -19.031239      -517.8663 
   2   2.0000      -0.859929       -23.3999 
   3   2.0000      -0.844174       -22.9711 
   4   2.0000      -0.342206        -9.3119 
   5   2.0000      -0.326628        -8.8880 
   6   2.0000      -0.323065        -8.7910 
   7   2.0000      -0.307399        -8.3647 
   8   2.0000      -0.261818        -7.1244 
   9   2.0000      -0.245960        -6.6929 
  10   0.0000      -0.196306        -5.3418 
  11   0.0000      -0.180661        -4.9160 
  12   0.0000      -0.167056        -4.5458 
  13   0.0000      -0.152113        -4.1392 
  14   0.0000       0.047020         1.2795 
  15   0.0000       0.064224         1.7476 
  16   0.0000       0.072121         1.9625 
  17   0.0000       0.076122         2.0714 
  18   0.0000       0.095230         2.5913 
  19   0.0000       0.118520         3.2251 
  20   0.0000       0.121095         3.2952 
  21   0.0000       0.130658         3.5554 
  22   0.0000       0.151200         4.1144 
  23   0.0000       0.161011         4.3813 
  24   0.0000       0.165839         4.5127 
  25   0.0000       0.183677         4.9981 
  26   0.0000       0.193799         5.2735 
  27   0.0000       0.208903         5.6845 
  28   0.0000       0.216444         5.8898 
  29   0.0000       0.230065         6.2604 
  30   0.0000       0.235029         6.3955 
  31   0.0000       0.247924         6.7464 
  32   0.0000       0.268847         7.3157 
  33   0.0000       0.276613         7.5270 
  34   0.0000       0.283164         7.7053 
  35   0.0000       0.297294         8.0898 
  36   0.0000       0.300910         8.1882 
  37   0.0000       0.378296        10.2940 
  38   0.0000       0.466660        12.6985 
  39   0.0000       0.504633        13.7318 
  40   0.0000       0.519533        14.1372 
  41   0.0000       0.529169        14.3994 
  42   0.0000       0.594423        16.1751 
  43   0.0000       0.597921        16.2703 
  44   0.0000       0.612089        16.6558 
  45   0.0000       0.612147        16.6574 
  46   0.0000       0.621542        16.9130 
  47   0.0000       0.636734        17.3264 
  48   0.0000       0.649493        17.6736 
  49   0.0000       0.657350        17.8874 
  50   0.0000       0.660866        17.9831 
  51   0.0000       0.679565        18.4919 
  52   0.0000       0.724048        19.7023 
  53   0.0000       0.731227        19.8977 
  54   0.0000       0.762138        20.7388 
  55   0.0000       0.777571        21.1588 
  56   0.0000       0.791890        21.5484 
  57   0.0000       0.794694        21.6247 
  58   0.0000       0.804186        21.8830 
  59   0.0000       0.806984        21.9592 
  60   0.0000       0.808763        22.0076 
  61   0.0000       0.827213        22.5096 
  62   0.0000       0.849421        23.1139 
  63   0.0000       0.855961        23.2919 
  64   0.0000       0.858406        23.3584 
  65   0.0000       0.883982        24.0544 
  66   0.0000       0.895389        24.3648 
  67   0.0000       0.913853        24.8672 
  68   0.0000       0.925046        25.1718 
  69   0.0000       0.930267        25.3139 
  70   0.0000       0.932532        25.3755 
  71   0.0000       0.944241        25.6941 
  72   0.0000       0.945928        25.7400 
  73   0.0000       0.964772        26.2528 
  74   0.0000       0.992749        27.0141 
  75   0.0000       1.033976        28.1359 
  76   0.0000       1.047867        28.5139 
  77   0.0000       1.063650        28.9434 
  78   0.0000       1.066810        29.0294 
  79   0.0000       1.079390        29.3717 
  80   0.0000       1.094576        29.7849 
  81   0.0000       1.109803        30.1993 
  82   0.0000       1.150109        31.2961 
  83   0.0000       1.160817        31.5874 
  84   0.0000       1.189152        32.3585 
  85   0.0000       1.189765        32.3752 
  86   0.0000       1.280028        34.8313 
  87   0.0000       1.303569        35.4719 
  88   0.0000       1.537048        41.8252 
  89   0.0000       1.542019        41.9605 
  90   0.0000       1.787197        48.6321 
  91   0.0000       1.798503        48.9397 
  92   0.0000       1.955508        53.2121 
  93   0.0000       1.957389        53.2633 
  94   0.0000       1.962999        53.4159 
  95   0.0000       1.970220        53.6124 
  96   0.0000       1.982280        53.9406 
  97   0.0000       1.992283        54.2128 
  98   0.0000       2.030102        55.2419 
  99   0.0000       2.044034        55.6210 
 100   0.0000       2.046383        55.6849 
 101   0.0000       2.072759        56.4027 
 102   0.0000       2.076165        56.4953 
 103   0.0000       2.116619        57.5961 
 104   0.0000       2.140638        58.2497 
 105   0.0000       2.146130        58.3992 
 106   0.0000       2.155798        58.6623 
 107   0.0000       2.163818        58.8805 
 108   0.0000       2.219825        60.4045 
 109   0.0000       2.225122        60.5486 
 110   0.0000       2.287602        62.2488 
 111   0.0000       2.309254        62.8380 
 112   0.0000       2.337940        63.6186 
 113   0.0000       2.350082        63.9490 
 114   0.0000       2.352988        64.0281 
 115   0.0000       2.368819        64.4589 
 116   0.0000       2.835621        77.1612 
 117   0.0000       2.854970        77.6877 
 118   0.0000       2.855334        77.6976 
 119   0.0000       2.871589        78.1399 
 120   0.0000       3.691760       100.4579 
 121   0.0000       3.706371       100.8555 
 122   0.0000       3.710829       100.9768 
 123   0.0000       3.728184       101.4490 
 124   0.0000       3.745327       101.9155 
 125   0.0000       3.746332       101.9429 
 126   0.0000       3.759680       102.3061 
 127   0.0000       3.760586       102.3308 
 128   0.0000       3.761984       102.3688 
 129   0.0000       3.778960       102.8307 
 130   0.0000       3.787008       103.0497 
 131   0.0000       3.793069       103.2147 
 132   0.0000       3.825321       104.0923 
 133   0.0000       3.828816       104.1874 
 134   0.0000       3.833700       104.3203 
 135   0.0000       3.845797       104.6495 
 136   0.0000       3.876521       105.4855 
 137   0.0000       3.896383       106.0260 
 138   0.0000       3.925345       106.8141 
 139   0.0000       3.927476       106.8721 
 140   0.0000       3.932536       107.0098 
 141   0.0000       3.936193       107.1093 
 142   0.0000       3.952493       107.5528 
 143   0.0000       3.964785       107.8873 
 144   0.0000       3.985027       108.4381 
 145   0.0000       3.990881       108.5974 
 146   0.0000       4.057026       110.3973 
 147   0.0000       4.071474       110.7904 
 148   0.0000       4.136983       112.5730 
 149   0.0000       4.143894       112.7611 
 150   0.0000       4.151618       112.9713 
 151   0.0000       4.155676       113.0817 
 152   0.0000       4.161778       113.2477 
 153   0.0000       4.224305       114.9492 
 154   0.0000       4.464853       121.4948 
 155   0.0000       4.499280       122.4316 
 156   0.0000       4.551705       123.8582 
 157   0.0000       4.562030       124.1392 
 158   0.0000       6.251457       170.1108 
 159   0.0000       6.264187       170.4572 
 160   0.0000       6.283150       170.9732 
 161   0.0000       6.297352       171.3597 
 162   0.0000       6.352581       172.8625 
 163   0.0000       6.362775       173.1399 
 164   0.0000       6.365943       173.2261 
 165   0.0000       6.378749       173.5746 
 166   0.0000       6.409624       174.4147 
 167   0.0000       6.424039       174.8070 
 168   0.0000       6.534460       177.8117 
 169   0.0000       6.555202       178.3761 
 170   0.0000       6.593757       179.4253 
 171   0.0000       6.610681       179.8858 
 172   0.0000       6.651388       180.9935 
 173   0.0000       6.657876       181.1700 
 174   0.0000       6.658305       181.1817 
 175   0.0000       6.667019       181.4188 
 176   0.0000       6.707417       182.5181 
 177   0.0000       6.716860       182.7750 
 178   0.0000       6.782933       184.5730 
 179   0.0000       6.797141       184.9596 
 180   0.0000       6.973448       189.7572 
 181   0.0000       6.986023       190.0993 
 182   0.0000       9.901620       269.4368 
 183   0.0000       9.933928       270.3159 

                    ********************************
                    * MULLIKEN POPULATION ANALYSIS *
                    ********************************

-----------------------
MULLIKEN ATOMIC CHARGES
-----------------------
   0 O :   -0.467373
   1 H :    0.218395
   2 H :    0.244752
   3 O :   -0.457588
   4 H :    0.230907
   5 H :    0.230907
Sum of atomic charges:   -0.0000000

--------------------------------
MULLIKEN REDUCED ORBITAL CHARGES
--------------------------------
  0 O s       :     3.988716  s :     3.988716
      pz      :     1.980477  p :     4.464242
      px      :     1.235762
      py      :     1.248003
      dz2     :     0.002924  d :     0.013265
      dxz     :     0.000324
      dyz     :     0.000102
      dx2y2   :     0.007738
      dxy     :     0.002177
      f0      :     0.000096  f :     0.001150
      f+1     :     0.000327
      f-1     :     0.000409
      f+2     :     0.000001
      f-2     :     0.000003
      f+3     :     0.000027
      f-3     :     0.000288
  1 H s       :     0.762079  s :     0.762079
      pz      :     0.008286  p :     0.017494
      px      :     0.003407
      py      :     0.005801
      dz2     :     0.000244  d :     0.002033
      dxz     :     0.001002
      dyz     :     0.000202
      dx2y2   :    -0.000020
      dxy     :     0.000605
  2 H s       :     0.736200  s :     0.736200
      pz      :     0.008224  p :     0.017080
      px      :     0.004595
      py      :     0.004261
      dz2     :     0.000177  d :     0.001967
      dxz     :     0.000013
      dyz     :     0.001312
      dx2y2   :     0.000117
      dxy     :     0.000348
  3 O s       :     3.983450  s :     3.983450
      pz      :     1.226764  p :     4.460436
      px      :     1.518585
      py      :     1.715086
      dz2     :    -0.000054  d :     0.012558
      dxz     :     0.006482
      dyz     :     0.003388
      dx2y2   :     0.000544
      dxy     :     0.002198
      f0      :     0.000045  f :     0.001144
      f+1     :     0.000311
      f-1     :     0.000192
      f+2     :     0.000027
      f-2     :     0.000408
      f+3     :     0.000056
      f-3     :     0.000105
  4 H s       :     0.749540  s :     0.749540
      pz      :     0.005756  p :     0.017435
      px      :     0.005102
      py      :     0.006577
      dz2     :     0.000663  d :     0.002118
      dxz     :     0.000340
      dyz     :     0.000605
      dx2y2   :     0.000381
      dxy     :     0.000128
  5 H s       :     0.749540  s :     0.749540
      pz      :     0.005756  p :     0.017435
      px      :     0.005102
      py      :     0.006577
      dz2     :     0.000663  d :     0.002118
      dxz     :     0.000340
      dyz     :     0.000605
      dx2y2   :     0.000381
      dxy     :     0.000128


                     *******************************
                     * LOEWDIN POPULATION ANALYSIS *
                     *******************************

----------------------
LOEWDIN ATOMIC CHARGES
----------------------
   0 O :   -0.169442
   1 H :    0.073394
   2 H :    0.092913
   3 O :   -0.168052
   4 H :    0.085593
   5 H :    0.085593

-------------------------------
LOEWDIN REDUCED ORBITAL CHARGES
-------------------------------
  0 O s       :     3.712717  s :     3.712717
      pz      :     1.888202  p :     4.399168
      px      :     1.254832
      py      :     1.256134
      dz2     :     0.011972  d :     0.051728
      dxz     :     0.000273
      dyz     :     0.000085
      dx2y2   :     0.027576
      dxy     :     0.011821
      f0      :     0.000066  f :     0.005830
      f+1     :     0.000861
      f-1     :     0.001063
      f+2     :     0.000002
      f-2     :     0.000008
      f+3     :     0.000820
      f-3     :     0.003009
  1 H s       :     0.684796  s :     0.684796
      pz      :     0.027242  p :     0.128154
      px      :     0.073758
      py      :     0.027154
      dz2     :     0.015682  d :     0.113656
      dxz     :     0.025258
      dyz     :     0.004186
      dx2y2   :     0.039286
      dxy     :     0.029244
  2 H s       :     0.667524  s :     0.667524
      pz      :     0.026284  p :     0.129498
      px      :     0.020197
      py      :     0.083018
      dz2     :     0.015290  d :     0.110064
      dxz     :     0.000492
      dyz     :     0.027900
      dx2y2   :     0.042775
      dxy     :     0.023607
  3 O s       :     3.709683  s :     3.709683
      pz      :     1.244707  p :     4.400667
      px      :     1.494245
      py      :     1.661714
      dz2     :     0.011897  d :     0.051825
      dxz     :     0.022622
      dyz     :     0.012883
      dx2y2   :     0.000692
      dxy     :     0.003732
      f0      :     0.000003  f :     0.005877
      f+1     :     0.002287
      f-1     :     0.001367
      f+2     :     0.000134
      f-2     :     0.001915
      f+3     :     0.000044
      f-3     :     0.000128
  4 H s       :     0.674710  s :     0.674710
      pz      :     0.056569  p :     0.126890
      px      :     0.037501
      py      :     0.032820
      dz2     :     0.023402  d :     0.112807
      dxz     :     0.037316
      dyz     :     0.029374
      dx2y2   :     0.010928
      dxy     :     0.011789
  5 H s       :     0.674710  s :     0.674710
      pz      :     0.056569  p :     0.126890
      px      :     0.037501
      py      :     0.032820
      dz2     :     0.023402  d :     0.112807
      dxz     :     0.037316
      dyz     :     0.029374
      dx2y2   :     0.010928
      dxy     :     0.011789


                      *****************************
                      * MAYER POPULATION ANALYSIS *
                      *****************************

  NA   - Mulliken gross atomic population
  ZA   - Total nuclear charge
  QA   - Mulliken gross atomic charge
  VA   - Mayer's total valence
  BVA  - Mayer's bonded valence
  FA   - Mayer's free valence

  ATOM       NA         ZA         QA         VA         BVA        FA
  0 O      8.4674     8.0000    -0.4674     1.9060     1.9060    -0.0000
  1 H      0.7816     1.0000     0.2184     0.9713     0.9713    -0.0000
  2 H      0.7552     1.0000     0.2448     0.9583     0.9583    -0.0000
  3 O      8.4576     8.0000    -0.4576     1.9150     1.9150     0.0000
  4 H      0.7691     1.0000     0.2309     0.9651     0.9651     0.0000
  5 H      0.7691     1.0000     0.2309     0.9651     0.9651     0.0000

  Mayer bond orders larger than 0.100000
B(  0-O ,  1-H ) :   0.9610 B(  0-O ,  2-H ) :   0.9440 B(  3-O ,  4-H ) :   0.9554 
B(  3-O ,  5-H ) :   0.9554 

-------
TIMINGS
-------

Total SCF time: 0 days 0 hours 0 min 3 sec 

Total time                  ....       3.594 sec
Sum of individual times     ....       3.448 sec  ( 95.9%)

Fock matrix formation       ....       3.065 sec  ( 85.3%)
  Split-RI-J                ....       1.875 sec  ( 61.2% of F)
  XC integration            ....       1.038 sec  ( 33.9% of F)
    Basis function eval.    ....       0.086 sec  (  8.3% of XC)
    Density eval.           ....       0.108 sec  ( 10.4% of XC)
    XC-Functional eval.     ....       0.040 sec  (  3.9% of XC)
    XC-Potential eval.      ....       0.239 sec  ( 23.0% of XC)
Diagonalization             ....       0.074 sec  (  2.1%)
Density matrix formation    ....       0.016 sec  (  0.4%)
Population analysis         ....       0.005 sec  (  0.1%)
Initial guess               ....       0.093 sec  (  2.6%)
Orbital Transformation      ....       0.000 sec  (  0.0%)
Orbital Orthonormalization  ....       0.000 sec  (  0.0%)
DIIS solution               ....       0.035 sec  (  1.0%)
SOSCF solution              ....       0.023 sec  (  0.6%)
Grid generation             ....       0.137 sec  (  3.8%)


-------------------------------------------------------------------------------
                          DFT DISPERSION CORRECTION                            
                                                                               
                              DFTD3 V3.1  Rev 1                                
                          USING Becke-Johnson damping                          
-------------------------------------------------------------------------------
The SCAN functional is recognized
Active option DFTDOPT                   ...         4   

molecular C6(AA) [au] = 341.285125 


            DFT-D V3
 parameters
 s6 scaling factor         :     1.0000 
 a1 scaling factor         :     0.5380 
 s8 scaling factor         :     0.0000 
 a2 scaling factor         :     5.4200 
 ad hoc parameters k1-k3   :    16.0000     1.3333    -4.0000 

 Edisp/kcal,au: -0.238112749025  -0.000379456779 
 E6   /kcal   :  -0.238112749 
 E8   /kcal   :  -0.000000000 
 % E8         :   0.000000000 

-------------------------   ----------------
Dispersion correction           -0.000379457
-------------------------   ----------------


-------------------------   --------------------
FINAL SINGLE POINT ENERGY      -152.232328077460
-------------------------   --------------------



           ************************************************************
           *        Program running with 24 parallel MPI-processes    *
           *              working on a common directory               *
           ************************************************************
------------------------------------------------------------------------------
                         ORCA SCF GRADIENT CALCULATION
------------------------------------------------------------------------------

Gradient of the Kohn-Sham DFT energy:
Kohn-Sham wavefunction type      ... RKS
Hartree-Fock exchange scaling    ...    0.000
Number of operators              ...    1
Number of atoms                  ...    6
Basis set dimensions             ...  184
Integral neglect threshold       ... 2.5e-11
Integral primitive cutoff        ... 2.5e-12

Nuclear repulsion gradient       ... done
One Electron Gradient            ... done
Pre-screening matrix             ... done
RI-J gradient                    ... done
Exchange-correlation gradient    ... done
Dispersion correction            ... done

------------------
CARTESIAN GRADIENT
------------------

   1   O   :    0.130772333    0.075582243   -0.000000002
   2   H   :   -0.076190882    0.036566976    0.000000001
   3   H   :   -0.005974889   -0.081951896   -0.000000003
   4   O   :   -0.120990693    0.089858419   -0.000000017
   5   H   :    0.037456866   -0.028940189   -0.069701194
   6   H   :    0.037456870   -0.028940189    0.069701197

Difference to translation invariance:
           :    0.0025296038    0.0621753643   -0.0000000195

Norm of the cartesian gradient     ...    0.2713281870
RMS gradient                       ...    0.0639526670
MAX gradient                       ...    0.1307723328

-------
TIMINGS
-------

Total SCF gradient time            ...        0.438 sec

One electron gradient       ....       0.002 sec  (  0.5%)
Prescreening matrices       ....       0.017 sec  (  4.0%)
RI-J Coulomb gradient       ....       0.140 sec  ( 31.9%)
XC gradient                 ....       0.064 sec  ( 14.7%)
------------------------------------------------------------------------------
                         ORCA GEOMETRY RELAXATION STEP
------------------------------------------------------------------------------

Reading the OPT-File                    .... done
Getting information on internals        .... done
Copying old internal coords+grads       .... done
Making the new internal coordinates     .... (new redundants).... done
Validating the new internal coordinates .... (new redundants).... done
Calculating the B-matrix                .... done
Calculating the G,G- and P matrices     .... done
Transforming gradient to internals      .... done
Projecting the internal gradient        .... done
Number of atoms                         ....   6
Number of internal coordinates          ....  13
Current Energy                          ....  -152.232328077 Eh
Current gradient norm                   ....     0.271328187 Eh/bohr
Maximum allowed component of the step   ....  0.300
Current trust radius                    ....  0.300
Evaluating the initial hessian          ....  (Almloef) done
Projecting the Hessian                  .... done
Forming the augmented Hessian           .... done
Diagonalizing the augmented Hessian     .... done
Last element of RFO vector              ....  0.732872403
Lowest eigenvalues of augmented Hessian:
 -0.183929475  0.000063776  0.001500001  0.001721984  0.021967156
Length of the computed step             ....  0.928355474
Warning: the length of the step is outside the trust region - taking restricted step instead
The input lambda is                     ....    -0.183929
   iter:   1  x=   -0.278458  g=    8.165233 f(x)=     0.771844
   iter:   2  x=   -0.398608  g=    2.681430 f(x)=     0.322174
   iter:   3  x=   -0.522687  g=    0.994324 f(x)=     0.123375
   iter:   4  x=   -0.605707  g=    0.463459 f(x)=     0.038476
   iter:   5  x=   -0.629349  g=    0.304697 f(x)=     0.007204
   iter:   6  x=   -0.630749  g=    0.273130 f(x)=     0.000382
   iter:   7  x=   -0.630753  g=    0.271402 f(x)=     0.000001
   iter:   8  x=   -0.630753  g=    0.271396 f(x)=     0.000000
   iter:   9  x=   -0.630753  g=    0.271396 f(x)=     0.000000
The output lambda is                    ....    -0.630753 (9 iterations)
The final length of the internal step   ....  0.300000000
Converting the step to cartesian space:
 Initial RMS(Int)=    0.0832050294
Transforming coordinates:
 Iter   0:  RMS(Cart)=    0.0808543558 RMS(Int)=    0.0812867164
 Iter   1:  RMS(Cart)=    0.0048115551 RMS(Int)=    0.0051781257
 Iter   2:  RMS(Cart)=    0.0003001529 RMS(Int)=    0.0003356982
 Iter   3:  RMS(Cart)=    0.0000444582 RMS(Int)=    0.0000367275
 Iter   4:  RMS(Cart)=    0.0000028973 RMS(Int)=    0.0000041694
 Iter   5:  RMS(Cart)=    0.0000003539 RMS(Int)=    0.0000001926
 Iter   6:  RMS(Cart)=    0.0000000308 RMS(Int)=    0.0000000419
done
Storing new coordinates                 .... done

                                .--------------------.
          ----------------------|Geometry convergence|-------------------------
          Item                value                   Tolerance       Converged
          ---------------------------------------------------------------------
          RMS gradient        0.0553848073            0.0001000000      NO
          MAX gradient        0.0952965732            0.0003000000      NO
          RMS step            0.0832050294            0.0020000000      NO
          MAX step            0.1457991597            0.0040000000      NO
          ........................................................
          Max(Bonds)      0.0772      Max(Angles)    4.69
          Max(Dihed)        1.04      Max(Improp)    0.00
          ---------------------------------------------------------------------

The optimization has not yet converged - more geometry cycles are needed


    ---------------------------------------------------------------------------
                         Redundant Internal Coordinates
                            (Angstroem and degrees)

        Definition                    Value    dE/dq     Step     New-Value
    ----------------------------------------------------------------------------
     1. B(H   1,O   0)                1.8105  0.095297 -0.0772    1.7333   
     2. B(H   2,O   0)                1.8238  0.086593 -0.0702    1.7536   
     3. B(O   3,H   2)                3.6908 -0.008006  0.0067    3.6975   
     4. B(H   4,O   3)                1.8134  0.093407 -0.0757    1.7378   
     5. B(H   5,O   3)                1.8134  0.093407 -0.0757    1.7378   
     6. A(H   1,O   0,H   2)          104.67 -0.063507    4.69    109.36   
     7. A(O   0,H   2,O   3)          172.57  0.034112   -2.67    169.90   
     8. A(H   2,O   3,H   4)          111.75 -0.004773    0.43    112.18   
     9. A(H   4,O   3,H   5)          104.78 -0.015020    1.21    105.99   
    10. A(H   2,O   3,H   5)          111.75 -0.004773    0.43    112.18   
    11. D(O   3,H   2,O   0,H   1)    180.00  0.000000   -0.00    180.00   
    12. D(H   5,O   3,H   2,O   0)     58.53 -0.012565    1.04     59.57   
    13. D(H   4,O   3,H   2,O   0)    -58.53  0.012565   -1.04    -59.57   
    ----------------------------------------------------------------------------

         *************************************************************
         *                GEOMETRY OPTIMIZATION CYCLE   2            *
         *************************************************************
---------------------------------
CARTESIAN COORDINATES (ANGSTROEM)
---------------------------------
  O      0.071138    2.737692    0.000000
  H     -1.462724    3.544909   -0.000000
  H     -0.184781    1.002850    0.000000
  O     -0.074455   -2.693026    0.000000
  H      0.759505   -3.324414   -1.387676
  H      0.759505   -3.324414    1.387676

----------------------------
CARTESIAN COORDINATES (A.U.)
----------------------------
  NO LB      ZA    FRAG     MASS         X           Y           Z
   0 O     8.0000    0    15.999    0.134431    5.173487    0.000000
   1 H     1.0000    0     1.008   -2.764148    6.698908   -0.000000
   2 H     1.0000    0     1.008   -0.349185    1.895111    0.000000
   3 O     8.0000    0    15.999   -0.140700   -5.089082    0.000000
   4 H     1.0000    0     1.008    1.435256   -6.282232   -2.622328
   5 H     1.0000    0     1.008    1.435256   -6.282232    2.622328

--------------------------------
INTERNAL COORDINATES (ANGSTROEM)
--------------------------------
 O      0   0   0     0.000000000000     0.00000000     0.00000000
 H      1   0   0     1.733301572850     0.00000000     0.00000000
 H      1   2   0     1.753616530257   109.36467270     0.00000000
 O      3   1   2     3.697522253843   169.89859468   179.99999879
 H      4   3   1     1.737752836977   112.17849019   300.41858056
 H      4   3   1     1.737752827660   112.17849161    59.58141876

---------------------------
INTERNAL COORDINATES (A.U.)
---------------------------
 O      0   0   0     0.000000000000     0.00000000     0.00000000
 H      1   0   0     3.275465280182     0.00000000     0.00000000
 H      1   2   0     3.313854986104   109.36467270     0.00000000
 O      3   1   2     6.987304433842   169.89859468   179.99999879
 H      4   3   1     3.283876950332   112.17849019   300.41858056
 H      4   3   1     3.283876932725   112.17849161    59.58141876



           ************************************************************
           *        Program running with 24 parallel MPI-processes    *
           *              working on a common directory               *
           ************************************************************
 One Electron integrals                  ... done
 Pre-screening matrix                    ... done


           ************************************************************
           *        Program running with 24 parallel MPI-processes    *
           *              working on a common directory               *
           ************************************************************

Diagonalization of the overlap matrix:
Smallest eigenvalue                        ... 1.770e-03
Time for diagonalization                   ...    0.009 sec
Threshold for overlap eigenvalues          ... 1.000e-08
Number of eigenvalues below threshold      ... 0
Time for construction of square roots      ...    0.003 sec
Total time needed                          ...    0.012 sec

-------------------
DFT GRID GENERATION
-------------------

General Integration Accuracy     IntAcc      ...  4.670
Radial Grid Type                 RadialGrid  ... Gauss-Chebyshev
Angular Grid (max. acc.)         AngularGrid ... Lebedev-302
Angular grid pruning method      GridPruning ... 3 (G Style)
Weight generation scheme         WeightScheme... Becke
Basis function cutoff            BFCut       ...    1.0000e-11
Integration weight cutoff        WCut        ...    1.0000e-14
Grids for H and He will be reduced by one unit

# of grid points (after initial pruning)     ...  26000 (   0.0 sec)
# of grid points (after weights+screening)   ...  25745 (   0.0 sec)
nearest neighbour list constructed           ...    0.0 sec
Grid point re-assignment to atoms done       ...    0.0 sec
Grid point division into batches done        ...    0.1 sec
Reduced shell lists constructed in    0.1 sec

Total number of grid points                  ...    25745
Total number of batches                      ...      407
Average number of points per batch           ...       63
Average number of grid points per atom       ...     4291
Average number of shells per batch           ...    27.33 (42.71%)
Average number of basis functions per batch  ...    69.44 (37.74%)
Average number of large shells per batch     ...    19.67 (71.95%)
Average number of large basis fcns per batch ...    48.44 (69.76%)
Maximum spatial batch extension              ...  12.40, 12.40, 16.88 au
Average spatial batch extension              ...   0.32,  0.31,  0.36 au

Time for grid setup =    0.129 sec

--------------
SCF ITERATIONS
--------------
ITER       Energy         Delta-E        Max-DP      RMS-DP      [F,P]     Damp
               ***  Starting incremental Fock matrix formation  ***
  0   -152.2778016723   0.000000000000 0.00246132  0.00006062  0.0108146 0.7000
                      *** Initiating the SOSCF procedure ***
                      *** Re-Reading the Fockian *** 
                      *** Removing any level shift *** 
ITER      Energy       Delta-E        Grad      Rot      Max-DP    RMS-DP
  1   -152.27816871  -0.0003670425  0.002072  0.002072  0.007069  0.000165
               *** Restarting incremental Fock matrix formation ***
  2   -152.27856554  -0.0003968248  0.006739  0.039217  0.017930  0.000484
  3   -152.26810081   0.0104647261  0.038293  0.036086  0.016661  0.000417
  4   -152.27892883  -0.0108280135  0.000277  0.001623  0.001314  0.000019
  5   -152.27891973   0.0000090932  0.001113  0.001395  0.000649  0.000016
  6   -152.27892789  -0.0000081604  0.000377  0.002421  0.001325  0.000023
  7   -152.27892296   0.0000049331  0.000815  0.001806  0.001020  0.000016
  8   -152.27893052  -0.0000075574  0.000043  0.000120  0.000077  0.000002
  9   -152.27893054  -0.0000000180  0.000039  0.000039  0.000029  0.000001
                  ***Gradient check signals convergence***
              ***Rediagonalizing the Fockian in SOSCF/NRSCF***

               *****************************************************
               *                     SUCCESS                       *
               *           SCF CONVERGED AFTER  10 CYCLES          *
               *****************************************************

Total Energy       :         -152.27893055 Eh           -4143.72036 eV
  Last Energy change         ...   -1.7872e-08  Tolerance :   1.0000e-08
  Last MAX-Density change    ...    8.1312e-07  Tolerance :   1.0000e-07
             **** THE GBW FILE WAS UPDATED (02_H2O_2.gbw) ****
             **** DENSITY FILE WAS UPDATED (02_H2O_2.scfp) ****
             **** ENERGY FILE WAS UPDATED (02_H2O_2.en.tmp) ****
             **** THE GBW FILE WAS UPDATED (02_H2O_2.gbw) ****
             **** DENSITY FILE WAS UPDATED (02_H2O_2.scfp) ****
Total SCF time: 0 days 0 hours 0 min 1 sec 


-------------------------------------------------------------------------------
                          DFT DISPERSION CORRECTION                            
                                                                               
                              DFTD3 V3.1  Rev 1                                
                          USING Becke-Johnson damping                          
-------------------------------------------------------------------------------
-------------------------   ----------------
Dispersion correction           -0.000383158
-------------------------   ----------------


-------------------------   --------------------
FINAL SINGLE POINT ENERGY      -152.279313712100
-------------------------   --------------------



           ************************************************************
           *        Program running with 24 parallel MPI-processes    *
           *              working on a common directory               *
           ************************************************************
------------------------------------------------------------------------------
                         ORCA SCF GRADIENT CALCULATION
------------------------------------------------------------------------------

Gradient of the Kohn-Sham DFT energy:
Kohn-Sham wavefunction type      ... RKS
Hartree-Fock exchange scaling    ...    0.000
Number of operators              ...    1
Number of atoms                  ...    6
Basis set dimensions             ...  184
Integral neglect threshold       ... 2.5e-11
Integral primitive cutoff        ... 2.5e-12

Nuclear repulsion gradient       ... done
One Electron Gradient            ... done
Pre-screening matrix             ... done
RI-J gradient                    ... done
Exchange-correlation gradient    ... done
Dispersion correction            ... done

------------------
CARTESIAN GRADIENT
------------------

   1   O   :    0.138752523    0.069207391    0.000000005
   2   H   :   -0.076649403    0.048861942   -0.000000001
   3   H   :   -0.005782196   -0.087722274   -0.000000002
   4   O   :   -0.129657926    0.095857840   -0.000000006
   5   H   :    0.039441018   -0.030076561   -0.076055193
   6   H   :    0.039441019   -0.030076563    0.076055192

Difference to translation invariance:
           :    0.0055450345    0.0660517742   -0.0000000048

Norm of the cartesian gradient     ...    0.2872668651
RMS gradient                       ...    0.0677094495
MAX gradient                       ...    0.1387525225

-------
TIMINGS
-------

Total SCF gradient time            ...        0.406 sec

One electron gradient       ....       0.007 sec  (  1.8%)
Prescreening matrices       ....       0.018 sec  (  4.5%)
RI-J Coulomb gradient       ....       0.094 sec  ( 23.1%)
XC gradient                 ....       0.068 sec  ( 16.8%)
------------------------------------------------------------------------------
                         ORCA GEOMETRY RELAXATION STEP
------------------------------------------------------------------------------

Reading the OPT-File                    .... done
Getting information on internals        .... done
Copying old internal coords+grads       .... done
Making the new internal coordinates     .... (new redundants).... done
Validating the new internal coordinates .... (new redundants).... done
Calculating the B-matrix                .... done
Calculating the G,G- and P matrices     .... done
Transforming gradient to internals      .... done
Projecting the internal gradient        .... done
Number of atoms                         ....   6
Number of internal coordinates          ....  13
Current Energy                          ....  -152.279313712 Eh
Current gradient norm                   ....     0.287266865 Eh/bohr
Maximum allowed component of the step   ....  0.300
Current trust radius                    ....  0.300
Updating the Hessian (BFGS)             .... done
Forming the augmented Hessian           .... done
Diagonalizing the augmented Hessian     .... done
Last element of RFO vector              ....  0.670595548
Lowest eigenvalues of augmented Hessian:
 -0.234024986 -0.001905825  0.001500001  0.001721984  0.021149835
Length of the computed step             ....  1.106215468
Warning: the length of the step is outside the trust region - taking restricted step instead
The input lambda is                     ....    -0.234025
   iter:   1  x=   -0.322367  g=   12.833273 f(x)=     1.133713
   iter:   2  x=   -0.440119  g=    4.092804 f(x)=     0.481939
   iter:   3  x=   -0.575755  g=    1.424603 f(x)=     0.193227
   iter:   4  x=   -0.690087  g=    0.590384 f(x)=     0.067500
   iter:   5  x=   -0.741115  g=    0.329670 f(x)=     0.016823
   iter:   6  x=   -0.747961  g=    0.262598 f(x)=     0.001798
   iter:   7  x=   -0.748064  g=    0.255030 f(x)=     0.000026
   iter:   8  x=   -0.748064  g=    0.254919 f(x)=     0.000000
   iter:   9  x=   -0.748064  g=    0.254919 f(x)=     0.000000
The output lambda is                    ....    -0.748064 (9 iterations)
The final length of the internal step   ....  0.300000000
Converting the step to cartesian space:
 Initial RMS(Int)=    0.0832050294
Transforming coordinates:
 Iter   0:  RMS(Cart)=    0.0833100492 RMS(Int)=    0.0812061618
 Iter   1:  RMS(Cart)=    0.0052382416 RMS(Int)=    0.0056472427
 Iter   2:  RMS(Cart)=    0.0003444797 RMS(Int)=    0.0003669342
 Iter   3:  RMS(Cart)=    0.0000543856 RMS(Int)=    0.0000475920
 Iter   4:  RMS(Cart)=    0.0000037215 RMS(Int)=    0.0000052003
 Iter   5:  RMS(Cart)=    0.0000004988 RMS(Int)=    0.0000003111
 Iter   6:  RMS(Cart)=    0.0000000443 RMS(Int)=    0.0000000610
done
Storing new coordinates                 .... done

                                .--------------------.
          ----------------------|Geometry convergence|-------------------------
          Item                value                   Tolerance       Converged
          ---------------------------------------------------------------------
          Energy change      -0.0469856346            0.0000050000      NO
          RMS gradient        0.0587921408            0.0001000000      NO
          MAX gradient        0.1015653719            0.0003000000      NO
          RMS step            0.0832050294            0.0020000000      NO
          MAX step            0.1443182608            0.0040000000      NO
          ........................................................
          Max(Bonds)      0.0764      Max(Angles)    4.97
          Max(Dihed)        1.04      Max(Improp)    0.00
          ---------------------------------------------------------------------

The optimization has not yet converged - more geometry cycles are needed


    ---------------------------------------------------------------------------
                         Redundant Internal Coordinates
                            (Angstroem and degrees)

        Definition                    Value    dE/dq     Step     New-Value
    ----------------------------------------------------------------------------
     1. B(H   1,O   0)                1.7333  0.101565 -0.0764    1.6569   
     2. B(H   2,O   0)                1.7536  0.090843 -0.0674    1.6862   
     3. B(O   3,H   2)                3.6975 -0.011241  0.0103    3.7078   
     4. B(H   4,O   3)                1.7378  0.100478 -0.0761    1.6616   
     5. B(H   5,O   3)                1.7378  0.100478 -0.0761    1.6616   
     6. A(H   1,O   0,H   2)          109.36 -0.064407    4.97    114.33   
     7. A(O   0,H   2,O   3)          169.90  0.035840   -2.86    167.04   
     8. A(H   2,O   3,H   4)          112.18 -0.005960    0.54    112.72   
     9. A(H   4,O   3,H   5)          105.98 -0.014071    1.06    107.04   
    10. A(H   2,O   3,H   5)          112.18 -0.005960    0.54    112.72   
    11. D(O   3,H   2,O   0,H   1)    180.00  0.000000    0.00    180.00   
    12. D(H   5,O   3,H   2,O   0)     59.58 -0.013171    1.04     60.62   
    13. D(H   4,O   3,H   2,O   0)    -59.58  0.013171   -1.04    -60.62   
    ----------------------------------------------------------------------------

         *************************************************************
         *                GEOMETRY OPTIMIZATION CYCLE   3            *
         *************************************************************
---------------------------------
CARTESIAN COORDINATES (ANGSTROEM)
---------------------------------
  O      0.011622    2.661161   -0.000000
  H     -1.366764    3.580657   -0.000000
  H     -0.263107    0.997476    0.000000
  O     -0.031340   -2.703047    0.000000
  H      0.758888   -3.296325   -1.335869
  H      0.758888   -3.296325    1.335869

----------------------------
CARTESIAN COORDINATES (A.U.)
----------------------------
  NO LB      ZA    FRAG     MASS         X           Y           Z
   0 O     8.0000    0    15.999    0.021962    5.028865   -0.000000
   1 H     1.0000    0     1.008   -2.582810    6.766462   -0.000000
   2 H     1.0000    0     1.008   -0.497200    1.884957    0.000000
   3 O     8.0000    0    15.999   -0.059223   -5.108019    0.000000
   4 H     1.0000    0     1.008    1.434090   -6.229152   -2.524426
   5 H     1.0000    0     1.008    1.434090   -6.229152    2.524426

--------------------------------
INTERNAL COORDINATES (ANGSTROEM)
--------------------------------
 O      0   0   0     0.000000000000     0.00000000     0.00000000
 H      1   0   0     1.656931640012     0.00000000     0.00000000
 H      1   2   0     1.686215282210   114.32974684     0.00000000
 O      3   1   2     3.707774361304   167.03939418   180.00000000
 H      4   3   1     1.661620898702   112.71061810   299.36332377
 H      4   3   1     1.661620890853   112.71062027    60.63667631

---------------------------
INTERNAL COORDINATES (A.U.)
---------------------------
 O      0   0   0     0.000000000000     0.00000000     0.00000000
 H      1   0   0     3.131147022251     0.00000000     0.00000000
 H      1   2   0     3.186485086210   114.32974684     0.00000000
 O      3   1   2     7.006678109240   167.03939418   180.00000000
 H      4   3   1     3.140008436947   112.71061810   299.36332377
 H      4   3   1     3.140008422115   112.71062027    60.63667631



           ************************************************************
           *        Program running with 24 parallel MPI-processes    *
           *              working on a common directory               *
           ************************************************************
 One Electron integrals                  ... done
 Pre-screening matrix                    ... done


           ************************************************************
           *        Program running with 24 parallel MPI-processes    *
           *              working on a common directory               *
           ************************************************************

Diagonalization of the overlap matrix:
Smallest eigenvalue                        ... 1.513e-03
Time for diagonalization                   ...    0.005 sec
Threshold for overlap eigenvalues          ... 1.000e-08
Number of eigenvalues below threshold      ... 0
Time for construction of square roots      ...    0.003 sec
Total time needed                          ...    0.009 sec

-------------------
DFT GRID GENERATION
-------------------

General Integration Accuracy     IntAcc      ...  4.670
Radial Grid Type                 RadialGrid  ... Gauss-Chebyshev
Angular Grid (max. acc.)         AngularGrid ... Lebedev-302
Angular grid pruning method      GridPruning ... 3 (G Style)
Weight generation scheme         WeightScheme... Becke
Basis function cutoff            BFCut       ...    1.0000e-11
Integration weight cutoff        WCut        ...    1.0000e-14
Grids for H and He will be reduced by one unit

# of grid points (after initial pruning)     ...  26000 (   0.0 sec)
# of grid points (after weights+screening)   ...  25731 (   0.0 sec)
nearest neighbour list constructed           ...    0.0 sec
Grid point re-assignment to atoms done       ...    0.0 sec
Grid point division into batches done        ...    0.1 sec
Reduced shell lists constructed in    0.1 sec

Total number of grid points                  ...    25731
Total number of batches                      ...      405
Average number of points per batch           ...       63
Average number of grid points per atom       ...     4288
Average number of shells per batch           ...    28.56 (44.62%)
Average number of basis functions per batch  ...    73.11 (39.73%)
Average number of large shells per batch     ...    20.28 (71.01%)
Average number of large basis fcns per batch ...    50.17 (68.62%)
Maximum spatial batch extension              ...  12.22, 12.40, 16.88 au
Average spatial batch extension              ...   0.32,  0.31,  0.34 au

Time for grid setup =    0.129 sec

--------------
SCF ITERATIONS
--------------
ITER       Energy         Delta-E        Max-DP      RMS-DP      [F,P]     Damp
               ***  Starting incremental Fock matrix formation  ***
  0   -152.3267363544   0.000000000000 0.00244969  0.00006361  0.0120002 0.7000
                      *** Initiating the SOSCF procedure ***
                      *** Re-Reading the Fockian *** 
                      *** Removing any level shift *** 
ITER      Energy       Delta-E        Grad      Rot      Max-DP    RMS-DP
  1   -152.32717333  -0.0004369726  0.002346  0.002346  0.008547  0.000183
               *** Restarting incremental Fock matrix formation ***
  2   -152.32778149  -0.0006081657  0.006665  0.033315  0.015420  0.000429
  3   -152.32013132   0.0076501743  0.033311  0.030339  0.014434  0.000363
  4   -152.32813251  -0.0080011933  0.000451  0.002812  0.001788  0.000030
  5   -152.32810261   0.0000299015  0.002064  0.002078  0.001079  0.000024
  6   -152.32813389  -0.0000312832  0.000300  0.001758  0.000985  0.000017
  7   -152.32813134   0.0000025514  0.000592  0.001221  0.000696  0.000011
  8   -152.32813519  -0.0000038458  0.000030  0.000055  0.000038  0.000001
  9   -152.32813520  -0.0000000075  0.000022  0.000021  0.000013  0.000000
                 **** Energy Check signals convergence ****
              ***Rediagonalizing the Fockian in SOSCF/NRSCF***

               *****************************************************
               *                     SUCCESS                       *
               *           SCF CONVERGED AFTER  10 CYCLES          *
               *****************************************************

Total Energy       :         -152.32813520 Eh           -4145.05929 eV
  Last Energy change         ...   -2.8912e-09  Tolerance :   1.0000e-08
  Last MAX-Density change    ...    5.5638e-07  Tolerance :   1.0000e-07
             **** THE GBW FILE WAS UPDATED (02_H2O_2.gbw) ****
             **** DENSITY FILE WAS UPDATED (02_H2O_2.scfp) ****
             **** ENERGY FILE WAS UPDATED (02_H2O_2.en.tmp) ****
             **** THE GBW FILE WAS UPDATED (02_H2O_2.gbw) ****
             **** DENSITY FILE WAS UPDATED (02_H2O_2.scfp) ****
Total SCF time: 0 days 0 hours 0 min 1 sec 


-------------------------------------------------------------------------------
                          DFT DISPERSION CORRECTION                            
                                                                               
                              DFTD3 V3.1  Rev 1                                
                          USING Becke-Johnson damping                          
-------------------------------------------------------------------------------
-------------------------   ----------------
Dispersion correction           -0.000386407
-------------------------   ----------------


-------------------------   --------------------
FINAL SINGLE POINT ENERGY      -152.328521604751
-------------------------   --------------------



           ************************************************************
           *        Program running with 24 parallel MPI-processes    *
           *              working on a common directory               *
           ************************************************************
------------------------------------------------------------------------------
                         ORCA SCF GRADIENT CALCULATION
------------------------------------------------------------------------------

Gradient of the Kohn-Sham DFT energy:
Kohn-Sham wavefunction type      ... RKS
Hartree-Fock exchange scaling    ...    0.000
Number of operators              ...    1
Number of atoms                  ...    6
Basis set dimensions             ...  184
Integral neglect threshold       ... 2.5e-11
Integral primitive cutoff        ... 2.5e-12

Nuclear repulsion gradient       ... done
One Electron Gradient            ... done
Pre-screening matrix             ... done
RI-J gradient                    ... done
Exchange-correlation gradient    ... done
Dispersion correction            ... done

------------------
CARTESIAN GRADIENT
------------------

   1   O   :    0.143424199    0.059090504    0.000000000
   2   H   :   -0.074431736    0.062361591    0.000000001
   3   H   :   -0.005223040   -0.093203001    0.000000000
   4   O   :   -0.137920485    0.101823569    0.000000015
   5   H   :    0.041290378   -0.031202941   -0.082553999
   6   H   :    0.041290376   -0.031202945    0.082553996

Difference to translation invariance:
           :    0.0084296914    0.0676667770    0.0000000134

Norm of the cartesian gradient     ...    0.3009697353
RMS gradient                       ...    0.0709392469
MAX gradient                       ...    0.1434241991

-------
TIMINGS
-------

Total SCF gradient time            ...        0.409 sec

One electron gradient       ....       0.014 sec  (  3.5%)
Prescreening matrices       ....       0.018 sec  (  4.3%)
RI-J Coulomb gradient       ....       0.094 sec  ( 23.0%)
XC gradient                 ....       0.077 sec  ( 18.8%)
------------------------------------------------------------------------------
                         ORCA GEOMETRY RELAXATION STEP
------------------------------------------------------------------------------

Reading the OPT-File                    .... done
Getting information on internals        .... done
Copying old internal coords+grads       .... done
Making the new internal coordinates     .... (new redundants).... done
Validating the new internal coordinates .... (new redundants).... done
Calculating the B-matrix                .... done
Calculating the G,G- and P matrices     .... done
Transforming gradient to internals      .... done
Projecting the internal gradient        .... done
Number of atoms                         ....   6
Number of internal coordinates          ....  13
Current Energy                          ....  -152.328521605 Eh
Current gradient norm                   ....     0.300969735 Eh/bohr
Maximum allowed component of the step   ....  0.300
Current trust radius                    ....  0.300
Updating the Hessian (BFGS)             .... done
Forming the augmented Hessian           .... done
Diagonalizing the augmented Hessian     .... done
Last element of RFO vector              ....  0.675578855
Lowest eigenvalues of augmented Hessian:
 -0.241292585 -0.005872859  0.001500001  0.001721984  0.019159956
Length of the computed step             ....  1.091342237
Warning: the length of the step is outside the trust region - taking restricted step instead
The input lambda is                     ....    -0.241293
   iter:   1  x=   -0.334310  g=   11.836780 f(x)=     1.101028
   iter:   2  x=   -0.458187  g=    3.777944 f(x)=     0.468000
   iter:   3  x=   -0.600089  g=    1.319471 f(x)=     0.187235
   iter:   4  x=   -0.718089  g=    0.550793 f(x)=     0.064994
   iter:   5  x=   -0.769320  g=    0.311025 f(x)=     0.015934
   iter:   6  x=   -0.775852  g=    0.250175 f(x)=     0.001634
   iter:   7  x=   -0.775940  g=    0.243595 f(x)=     0.000022
   iter:   8  x=   -0.775940  g=    0.243507 f(x)=     0.000000
   iter:   9  x=   -0.775940  g=    0.243507 f(x)=     0.000000
The output lambda is                    ....    -0.775940 (9 iterations)
The final length of the internal step   ....  0.300000000
Converting the step to cartesian space:
 Initial RMS(Int)=    0.0832050294
Transforming coordinates:
 Iter   0:  RMS(Cart)=    0.0790205061 RMS(Int)=    0.0816805610
 Iter   1:  RMS(Cart)=    0.0044592326 RMS(Int)=    1.7426479002
 Iter   2:  RMS(Cart)=    0.0002494155 RMS(Int)=    0.0003014530
 Iter   3:  RMS(Cart)=    0.0000362143 RMS(Int)=    0.0000288761
 Iter   4:  RMS(Cart)=    0.0000024785 RMS(Int)=    0.0000034208
 Iter   5:  RMS(Cart)=    0.0000002499 RMS(Int)=    0.0000001357
 Iter   6:  RMS(Cart)=    0.0000000247 RMS(Int)=    0.0000000308
done
Storing new coordinates                 .... done

                                .--------------------.
          ----------------------|Geometry convergence|-------------------------
[...]
Validating the new internal coordinates .... (new redundants).... done
Calculating the B-matrix                .... done
Calculating the G,G- and P matrices     .... done
Transforming gradient to internals      .... done
Projecting the internal gradient        .... done
Number of atoms                         ....   6
Number of internal coordinates          ....  13
Current Energy                          ....  -152.738505684 Eh
Current gradient norm                   ....     0.244029120 Eh/bohr
Maximum allowed component of the step   ....  0.300
Current trust radius                    ....  0.300
Updating the Hessian (BFGS)             .... done
Forming the augmented Hessian           .... done
Diagonalizing the augmented Hessian     .... done
Last element of RFO vector              ....  0.008803999
Lowest eigenvalues of augmented Hessian:
 -17.846358523 -0.023816169 -0.002421205  0.000022587  0.023063451
Warning: RFO finds a terribly low value for the scaling factor
Trying a QUASI-NEWTON step instead
Doing a quasi-Newton Step:
Inverting the Hessian                   .... done
Computing the step                      .... done
Length of the computed step             .... 10.864318949
Warning: the length of the step is outside the trust region - QNStep is scaled down
Converting the step to cartesian space:
 Initial RMS(Int)=    0.0832050294
Transforming coordinates:
 Iter   0:  RMS(Cart)=    0.0621974442 RMS(Int)=    0.0591238789
 Iter   1:  RMS(Cart)=    0.0262029648 RMS(Int)=    0.0252110124
 Iter   2:  RMS(Cart)=    0.0000074564 RMS(Int)=    0.0000053603
 Iter   3:  RMS(Cart)=    0.0000001730 RMS(Int)=    0.0000003713
 Iter   4:  RMS(Cart)=    0.0000000038 RMS(Int)=    0.0000000028
done
Storing new coordinates                 .... done

                                .--------------------.
          ----------------------|Geometry convergence|-------------------------
          Item                value                   Tolerance       Converged
          ---------------------------------------------------------------------
          Energy change       0.0060667163            0.0000050000      NO
          RMS gradient        0.0443165489            0.0001000000      NO
          MAX gradient        0.1290377690            0.0003000000      NO
          RMS step            0.0832050294            0.0020000000      NO
          MAX step            0.2909155288            0.0040000000      NO
          ........................................................
          Max(Bonds)      0.1539      Max(Angles)    0.20
          Max(Dihed)        2.48      Max(Improp)    0.00
          ---------------------------------------------------------------------

The optimization has not yet converged - more geometry cycles are needed


    ---------------------------------------------------------------------------
                         Redundant Internal Coordinates
                            (Angstroem and degrees)

        Definition                    Value    dE/dq     Step     New-Value
    ----------------------------------------------------------------------------
     1. B(H   1,O   0)                1.3305  0.129038  0.0236    1.3541   
     2. B(H   2,O   0)                0.9218 -0.070218  0.0006    0.9225   
     3. B(O   3,H   2)                8.0425 -0.043713  0.1539    8.1965   
     4. B(H   4,O   3)                0.9599  0.013395 -0.0005    0.9595   
     5. B(H   5,O   3)                0.9665  0.015601 -0.0005    0.9660   
     6. A(H   1,O   0,H   2)          152.14  0.028734   -0.04    152.10   
     7. A(O   0,H   2,O   3)          160.19 -0.024347    0.20    160.38   
     8. A(H   2,O   3,H   4)          110.72 -0.005979   -0.17    110.56   
     9. A(H   4,O   3,H   5)          116.72  0.006626    0.18    116.90   
    10. A(H   2,O   3,H   5)          128.40 -0.004968   -0.09    128.31   
    11. D(O   3,H   2,O   0,H   1)    100.92 -0.006283   -0.71    100.20   
    12. D(H   5,O   3,H   2,O   0)     93.55  0.005866    2.48     96.03   
    13. D(H   4,O   3,H   2,O   0)   -110.49 -0.004458    2.08   -108.41   
    ----------------------------------------------------------------------------

         *************************************************************
         *                GEOMETRY OPTIMIZATION CYCLE  50            *
         *************************************************************
---------------------------------
CARTESIAN COORDINATES (ANGSTROEM)
---------------------------------
  O     -1.019609    4.189535    0.217435
  H     -1.007093    5.410407   -0.368058
  H     -1.093221    3.270572    0.185036
  O      1.030557   -4.644505    0.033451
  H      0.883443   -5.015737   -0.838967
  H      1.074110   -5.266676    0.771103

----------------------------
CARTESIAN COORDINATES (A.U.)
----------------------------
  NO LB      ZA    FRAG     MASS         X           Y           Z
   0 O     8.0000    0    15.999   -1.926781    7.917074    0.410892
   1 H     1.0000    0     1.008   -1.903129   10.224188   -0.695530
   2 H     1.0000    0     1.008   -2.065889    6.180485    0.349667
   3 O     8.0000    0    15.999    1.947470   -8.776842    0.063213
   4 H     1.0000    0     1.008    1.669465   -9.478369   -1.585417
   5 H     1.0000    0     1.008    2.029773   -9.952575    1.457174

--------------------------------
INTERNAL COORDINATES (ANGSTROEM)
--------------------------------
 O      0   0   0     0.000000000000     0.00000000     0.00000000
 H      1   0   0     1.354063414321     0.00000000     0.00000000
 H      1   2   0     0.922476142941   152.09848559     0.00000000
 O      3   1   2     8.196453508211   160.38445944   100.20247235
 H      4   3   1     0.959462525633   110.53143935   251.59761359
 H      4   3   1     0.965983634573   128.28176955    96.01924843

---------------------------
INTERNAL COORDINATES (A.U.)
---------------------------
 O      0   0   0     0.000000000000     0.00000000     0.00000000
 H      1   0   0     2.558809021030     0.00000000     0.00000000
 H      1   2   0     1.743227275234   152.09848559     0.00000000
 O      3   1   2    15.489052399937   160.38445944   100.20247235
 H      4   3   1     1.813121409206   110.53143935   251.59761359
 H      4   3   1     1.825444519194   128.28176955    96.01924843



           ************************************************************
           *        Program running with 24 parallel MPI-processes    *
           *              working on a common directory               *
           ************************************************************
 One Electron integrals                  ... done
 Pre-screening matrix                    ... done


           ************************************************************
           *        Program running with 24 parallel MPI-processes    *
           *              working on a common directory               *
           ************************************************************

Diagonalization of the overlap matrix:
Smallest eigenvalue                        ... 3.367e-04
Time for diagonalization                   ...    0.005 sec
Threshold for overlap eigenvalues          ... 1.000e-08
Number of eigenvalues below threshold      ... 0
Time for construction of square roots      ...    0.003 sec
Total time needed                          ...    0.008 sec

-------------------
DFT GRID GENERATION
-------------------

General Integration Accuracy     IntAcc      ...  4.670
Radial Grid Type                 RadialGrid  ... Gauss-Chebyshev
Angular Grid (max. acc.)         AngularGrid ... Lebedev-302
Angular grid pruning method      GridPruning ... 3 (G Style)
Weight generation scheme         WeightScheme... Becke
Basis function cutoff            BFCut       ...    1.0000e-11
Integration weight cutoff        WCut        ...    1.0000e-14
Grids for H and He will be reduced by one unit

# of grid points (after initial pruning)     ...  26000 (   0.0 sec)
# of grid points (after weights+screening)   ...  25750 (   0.0 sec)
nearest neighbour list constructed           ...    0.0 sec
Grid point re-assignment to atoms done       ...    0.0 sec
Grid point division into batches done        ...    0.1 sec
Reduced shell lists constructed in    0.1 sec

Total number of grid points                  ...    25750
Total number of batches                      ...      406
Average number of points per batch           ...       63
Average number of grid points per atom       ...     4292
Average number of shells per batch           ...    29.44 (46.01%)
Average number of basis functions per batch  ...    79.44 (43.18%)
Average number of large shells per batch     ...    24.78 (84.15%)
Average number of large basis fcns per batch ...    67.00 (84.34%)
Maximum spatial batch extension              ...  15.76,  8.76, 14.33 au
Average spatial batch extension              ...   0.26,  0.16,  0.25 au

Time for grid setup =    0.132 sec

--------------
SCF ITERATIONS
--------------
ITER       Energy         Delta-E        Max-DP      RMS-DP      [F,P]     Damp
               ***  Starting incremental Fock matrix formation  ***
                      *** Initiating the SOSCF procedure ***
                      *** Re-Reading the Fockian *** 
                      *** Removing any level shift *** 
ITER      Energy       Delta-E        Grad      Rot      Max-DP    RMS-DP
  0   -152.73227723 -152.7322772300  0.002171  0.002171  0.002471  0.000068
               *** Restarting incremental Fock matrix formation ***
  1   -152.73237692  -0.0000996860  0.001275  0.002694  0.002477  0.000049
  2   -152.73236414   0.0000127763  0.002205  0.003580  0.001767  0.000033
  3   -152.73239886  -0.0000347189  0.000418  0.002407  0.000852  0.000018
  4   -152.73240014  -0.0000012780  0.000184  0.000661  0.000288  0.000006
  5   -152.73240104  -0.0000009016  0.000019  0.000112  0.000039  0.000001
  6   -152.73240104  -0.0000000065  0.000006  0.000032  0.000013  0.000000
                  ***Gradient check signals convergence***
              ***Rediagonalizing the Fockian in SOSCF/NRSCF***

               *****************************************************
               *                     SUCCESS                       *
               *           SCF CONVERGED AFTER   7 CYCLES          *
               *****************************************************

Total Energy       :         -152.73240105 Eh           -4156.05992 eV
  Last Energy change         ...   -3.3542e-09  Tolerance :   1.0000e-08
  Last MAX-Density change    ...    1.7614e-06  Tolerance :   1.0000e-07
             **** THE GBW FILE WAS UPDATED (02_H2O_2.gbw) ****
             **** DENSITY FILE WAS UPDATED (02_H2O_2.scfp) ****
             **** ENERGY FILE WAS UPDATED (02_H2O_2.en.tmp) ****
             **** THE GBW FILE WAS UPDATED (02_H2O_2.gbw) ****
             **** DENSITY FILE WAS UPDATED (02_H2O_2.scfp) ****
Total SCF time: 0 days 0 hours 0 min 1 sec 


-------------------------------------------------------------------------------
                          DFT DISPERSION CORRECTION                            
                                                                               
                              DFTD3 V3.1  Rev 1                                
                          USING Becke-Johnson damping                          
-------------------------------------------------------------------------------
-------------------------   ----------------
Dispersion correction           -0.000187935
-------------------------   ----------------


-------------------------   --------------------
FINAL SINGLE POINT ENERGY      -152.732588983145
-------------------------   --------------------



           ************************************************************
           *        Program running with 24 parallel MPI-processes    *
           *              working on a common directory               *
           ************************************************************
------------------------------------------------------------------------------
                         ORCA SCF GRADIENT CALCULATION
------------------------------------------------------------------------------

Gradient of the Kohn-Sham DFT energy:
Kohn-Sham wavefunction type      ... RKS
Hartree-Fock exchange scaling    ...    0.000
Number of operators              ...    1
Number of atoms                  ...    6
Basis set dimensions             ...  184
Integral neglect threshold       ... 2.5e-11
Integral primitive cutoff        ... 2.5e-12

Nuclear repulsion gradient       ... done
One Electron Gradient            ... done
Pre-screening matrix             ... done
RI-J gradient                    ... done
Exchange-correlation gradient    ... done
Dispersion correction            ... done

------------------
CARTESIAN GRADIENT
------------------

   1   O   :   -0.009355368   -0.176507297    0.028847615
   2   H   :    0.005592363    0.131573228   -0.031808912
   3   H   :    0.008638916    0.038119093    0.042929028
   4   O   :    0.005601814    0.060993883    0.002178838
   5   H   :   -0.000049951    0.014519061   -0.009934240
   6   H   :    0.003007094    0.006564491    0.018477120

Difference to translation invariance:
           :    0.0134348677    0.0752624601    0.0506894481

Norm of the cartesian gradient     ...    0.2413693065
RMS gradient                       ...    0.0568912911
MAX gradient                       ...    0.1765072966

-------
TIMINGS
-------

Total SCF gradient time            ...        0.409 sec

One electron gradient       ....       0.017 sec  (  4.2%)
Prescreening matrices       ....       0.017 sec  (  4.1%)
RI-J Coulomb gradient       ....       0.087 sec  ( 21.2%)
XC gradient                 ....       0.088 sec  ( 21.4%)
------------------------------------------------------------------------------
                         ORCA GEOMETRY RELAXATION STEP
------------------------------------------------------------------------------

Reading the OPT-File                    .... done
Getting information on internals        .... done
Copying old internal coords+grads       .... done
Making the new internal coordinates     .... (new redundants).... done
Validating the new internal coordinates .... (new redundants).... done
Calculating the B-matrix                .... done
Calculating the G,G- and P matrices     .... done
Transforming gradient to internals      .... done
Projecting the internal gradient        .... done
Number of atoms                         ....   6
Number of internal coordinates          ....  13
Current Energy                          ....  -152.732588983 Eh
Current gradient norm                   ....     0.241369306 Eh/bohr
Maximum allowed component of the step   ....  0.300
Current trust radius                    ....  0.300
Resetting Hessian after 50 BFGS Update Steps....
Build internal Hessian                  .... (Almloef) done
Updating Hessian with the last 5 steps  .... done
Forming the augmented Hessian           .... done
Diagonalizing the augmented Hessian     .... done
Last element of RFO vector              ....  0.736803994
Lowest eigenvalues of augmented Hessian:
 -0.130943682  0.000758662  0.001661855  0.009374935  0.082995800
Length of the computed step             ....  0.917620443
Warning: the length of the step is outside the trust region - taking restricted step instead
The input lambda is                     ....    -0.130944
   iter:   1  x=   -0.196426  g=   11.484442 f(x)=     0.752027
   iter:   2  x=   -0.280351  g=    3.753501 f(x)=     0.315014
   iter:   3  x=   -0.367975  g=    1.383944 f(x)=     0.121266
   iter:   4  x=   -0.427336  g=    0.641530 f(x)=     0.038082
   iter:   5  x=   -0.444499  g=    0.419826 f(x)=     0.007206
   iter:   6  x=   -0.445539  g=    0.375443 f(x)=     0.000390
   iter:   7  x=   -0.445542  g=    0.372961 f(x)=     0.000001
   iter:   8  x=   -0.445542  g=    0.372953 f(x)=     0.000000
   iter:   9  x=   -0.445542  g=    0.372953 f(x)=     0.000000
The output lambda is                    ....    -0.445542 (9 iterations)
The final length of the internal step   ....  0.300000000
Converting the step to cartesian space:
 Initial RMS(Int)=    0.0832050294
Transforming coordinates:
 Iter   0:  RMS(Cart)=    0.0643062446 RMS(Int)=    0.0827923070
 Iter   1:  RMS(Cart)=    0.0026969688 RMS(Int)=    0.0046240820
 Iter   2:  RMS(Cart)=    0.0001998751 RMS(Int)=    0.0002806163
 Iter   3:  RMS(Cart)=    0.0000094975 RMS(Int)=    0.0000109475
 Iter   4:  RMS(Cart)=    0.0000009941 RMS(Int)=    0.0000011931
 Iter   5:  RMS(Cart)=    0.0000000795 RMS(Int)=    0.0000000905
done
Storing new coordinates                 .... done

                                .--------------------.
          ----------------------|Geometry convergence|-------------------------
          Item                value                   Tolerance       Converged
          ---------------------------------------------------------------------
          Energy change       0.0059167004            0.0000050000      NO
          RMS gradient        0.0438167760            0.0001000000      NO
          MAX gradient        0.1276499177            0.0003000000      NO
          RMS step            0.0832050294            0.0020000000      NO
          MAX step            0.2642777456            0.0040000000      NO
          ........................................................
          Max(Bonds)      0.1398      Max(Angles)    2.94
          Max(Dihed)        2.78      Max(Improp)    0.00
          ---------------------------------------------------------------------

The optimization has not yet converged - more geometry cycles are needed


    ---------------------------------------------------------------------------
                         Redundant Internal Coordinates
                            (Angstroem and degrees)

        Definition                    Value    dE/dq     Step     New-Value
    ----------------------------------------------------------------------------
     1. B(H   1,O   0)                1.3541  0.127650 -0.1398    1.2142   
     2. B(H   2,O   0)                0.9225 -0.069405  0.0331    0.9556   
     3. B(O   3,H   2)                8.1965 -0.042909  0.0484    8.2448   
     4. B(H   4,O   3)                0.9595  0.013107 -0.0062    0.9532   
     5. B(H   5,O   3)                0.9660  0.015281 -0.0067    0.9593   
     6. A(H   1,O   0,H   2)          152.10  0.028689   -2.94    149.16   
     7. A(O   0,H   2,O   3)          160.38 -0.024053    2.42    162.80   
     8. A(H   2,O   3,H   4)          110.53 -0.005988    0.67    111.20   
     9. A(H   4,O   3,H   5)          116.88  0.006586   -0.84    116.04   
    10. A(H   2,O   3,H   5)          128.28 -0.005040    0.71    128.99   
    11. D(O   3,H   2,O   0,H   1)    100.20 -0.006293    2.78    102.98   
    12. D(H   5,O   3,H   2,O   0)     96.02  0.005990   -0.88     95.14   
    13. D(H   4,O   3,H   2,O   0)   -108.40 -0.004375    0.54   -107.86   
    ----------------------------------------------------------------------------




    ----------------------------------------------------------------------------
                                   ERROR !!!
       The optimization did not converge but reached the maximum 
       number of optimization cycles.
       As a subsequent Frequencies calculation has been requested
       ORCA will abort at this point of the run.
       Please restart the calculation with the lowest energy geometry and/or
       a larger maxiter for the geometry optimization.
    ----------------------------------------------------------------------------


[file orca_main/run.cpp, line 10680]: ORCA finished with error return - aborting the run
[file orca_main/run.cpp, line 10680]: ORCA finished with error return - aborting the run
