
                                 *****************
                                 * O   R   C   A *
                                 *****************

           --- An Ab Initio, DFT and Semiempirical electronic structure package ---

                  #######################################################
                  #                        -***-                        #
                  #          Department of theory and spectroscopy      #
                  #               Directorship: Frank Neese             #
                  #        Max Planck Institute fuer Kohlenforschung    #
                  #                Kaiser Wilhelm Platz 1               #
                  #                 D-45470 Muelheim/Ruhr               #
                  #                      Germany                        #
                  #                                                     #
                  #                  All rights reserved                #
                  #                        -***-                        #
                  #######################################################


                         Program Version 4.2.0 -  RELEASE  -


 With contributions from (in alphabetic order):
   Daniel Aravena         : Magnetic Suceptibility
   Michael Atanasov       : Ab Initio Ligand Field Theory (pilot matlab implementation)
   Alexander A. Auer      : GIAO ZORA, VPT2
   Ute Becker             : Parallelization
   Giovanni Bistoni       : ED, misc. LED, open-shell LED, HFLED
   Martin Brehm           : Molecular dynamics
   Dmytro Bykov           : SCF Hessian
   Vijay G. Chilkuri      : MRCI spin determinant printing, contributions to CSF-ICE
   Dipayan Datta          : RHF DLPNO-CCSD density
   Achintya Kumar Dutta   : EOM-CC, STEOM-CC
   Dmitry Ganyushin       : Spin-Orbit,Spin-Spin,Magnetic field MRCI
   Miquel Garcia          : C-PCM Hessian, Gaussian charge scheme
   Yang Guo               : DLPNO-NEVPT2, CIM, IAO-localization
   Andreas Hansen         : Spin unrestricted coupled pair/coupled cluster methods
   Benjamin Helmich-Paris : CASSCF linear response (MC-RPA)
   Lee Huntington         : MR-EOM, pCC
   Robert Izsak           : Overlap fitted RIJCOSX, COSX-SCS-MP3, EOM
   Christian Kollmar      : KDIIS, OOCD, Brueckner-CCSD(T), CCSD density
   Simone Kossmann        : Meta GGA functionals, TD-DFT gradient, OOMP2, MP2 Hessian
   Martin Krupicka        : AUTO-CI
   Lucas Lang             : DCDCAS
   Dagmar Lenk            : GEPOL surface, SMD
   Dimitrios Liakos       : Extrapolation schemes; Compound Job, initial MDCI parallelization
   Dimitrios Manganas     : Further ROCIS development; embedding schemes
   Dimitrios Pantazis     : SARC Basis sets
   Taras Petrenko         : DFT Hessian,TD-DFT gradient, ASA, ECA, R-Raman, ABS, FL, XAS/XES, NRVS
   Peter Pinski           : DLPNO-MP2, DLPNO-MP2 Gradient
   Christoph Reimann      : Effective Core Potentials
   Marius Retegan         : Local ZFS, SOC
   Christoph Riplinger    : Optimizer, TS searches, QM/MM, DLPNO-CCSD(T), (RO)-DLPNO pert. Triples
   Tobias Risthaus        : Range-separated hybrids, TD-DFT gradient, RPA, STAB
   Michael Roemelt        : Original ROCIS implementation
   Masaaki Saitow         : Open-shell DLPNO-CCSD energy and density
   Barbara Sandhoefer     : DKH picture change effects
   Avijit Sen             : IP-ROCIS
   Kantharuban Sivalingam : CASSCF convergence, NEVPT2, FIC-MRCI
   Bernardo de Souza      : ESD, SOC TD-DFT
   Georgi Stoychev        : AutoAux, RI-MP2 NMR
   Willem Van den Heuvel  : Paramagnetic NMR
   Boris Wezisla          : Elementary symmetry handling
   Frank Wennmohs         : Technical directorship


 We gratefully acknowledge several colleagues who have allowed us to
 interface, adapt or use parts of their codes:
   Stefan Grimme, W. Hujo, H. Kruse,             : VdW corrections, initial TS optimization,
                  C. Bannwarth                     DFT functionals, gCP, sTDA/sTD-DF
   Ed Valeev, F. Pavosevic, A. Kumar             : LibInt (2-el integral package), F12 methods
   Garnet Chan, S. Sharma, J. Yang, R. Olivares  : DMRG
   Ulf Ekstrom                                   : XCFun DFT Library
   Mihaly Kallay                                 : mrcc  (arbitrary order and MRCC methods)
   Andreas Klamt, Michael Diedenhofen            : otool_cosmo (COSMO solvation model)
   Jiri Pittner, Ondrej Demel                    : Mk-CCSD
   Frank Weinhold                                : gennbo (NPA and NBO analysis)
   Christopher J. Cramer and Donald G. Truhlar   : smd solvation model
   Lars Goerigk                                  : TD-DFT with DH, B97 family of functionals
   V. Asgeirsson, H. Jonsson                     : NEB implementation
   FAccTs GmbH                                   : IRC, NEB, NEB-TS, Multilevel, MM, QM/MM, CI optimization
   S Lehtola, MJT Oliveira, MAL Marques          : LibXC Library


 Your calculation uses the libint2 library for the computation of 2-el integrals
 For citations please refer to: http://libint.valeyev.net

 Your ORCA version has been built with support for libXC version: 4.2.3
 For citations please refer to: https://tddft.org/programs/libxc/

 This ORCA versions uses:
   CBLAS   interface :  Fast vector & matrix operations
   LAPACKE interface :  Fast linear algebra routines
   SCALAPACK package :  Parallel linear algebra routines


Your calculation utilizes the atom-pairwise dispersion correction
with the Becke-Johnson damping scheme (D3BJ)
Cite in your paper:
S.Grimme, S.Ehrlich, L.Goerigk, J Comput Chem, (2011), 32, 1456–1465 
S.Grimme, J.Antony, S.Ehrlich and H.Krieg, J.Chem.Phys., 132, (2010), 154104 
   

----- Orbital basis set information -----
Your calculation utilizes the basis: aug-cc-pV(T+d)Z 
             Al - Ar: T.H. Dunning, Jr., K. A. Peterson and A. K. Wilson, J. Chem. Phys.
                      114, 9244 (2001)

----- AuxJ basis set information -----
Your calculation utilizes the auxiliary basis: def2/J
   F. Weigend, Phys. Chem. Chem. Phys. 8, 1057 (2006).

================================================================================
                                        WARNINGS
                       Please study these warnings very carefully!
================================================================================


WARNING: Geometry Optimization
  ===> : Switching off AutoStart
         For restart on a previous wavefunction, please use MOREAD

WARNING: The SCAN functional is very grid-sensitive!
         Use at least GRID5 and a higher intacc

INFO   : the flag for use of LIBINT has been found!

================================================================================
                                       INPUT FILE
================================================================================
NAME = 03_H2O_3.in
|  1> #
|  2> # 03_H2O_3 scanfunc/aug-cc-pvt(+d)z
|  3> #
|  4> ! scanfunc d3bj aug-cc-pvt(+d)z def2/j grid4 nofinalgrid opt xyzfile numfreq
|  5> 
|  6> *xyz 0 1
|  7> O	-1.476811	-0.647642	-0.082126
|  8> H	-0.613415	-1.087457	-0.037065
|  9> H	-2.026236	-1.086841	0.568502
| 10> O	1.305672	-0.945117	-0.091536
| 11> H	1.973931	-1.196903	0.547209
| 12> H	1.22684	0.019839	-0.021857
| 13> O	0.169678	1.599733	0.108456
| 14> H	-0.629586	1.051269	0.060063
| 15> H	0.080159	2.244313	-0.595195
| 16> *
| 17> 
| 18> %maxcore 5000
| 19> 
| 20> %pal
| 21> nprocs 24
| 22> end
| 23> 
| 24> 
| 25>                          ****END OF INPUT****
================================================================================

                       *****************************
                       * Geometry Optimization Run *
                       *****************************

Geometry optimization settings:
Update method            Update   .... BFGS
Choice of coordinates    CoordSys .... Z-matrix Internals
Initial Hessian          InHess   .... Almoef's Model

Convergence Tolerances:
Energy Change            TolE     ....  5.0000e-06 Eh
Max. Gradient            TolMAXG  ....  3.0000e-04 Eh/bohr
RMS Gradient             TolRMSG  ....  1.0000e-04 Eh/bohr
Max. Displacement        TolMAXD  ....  4.0000e-03 bohr
RMS Displacement         TolRMSD  ....  2.0000e-03 bohr
Strict Convergence                ....  False
------------------------------------------------------------------------------
                        ORCA OPTIMIZATION COORDINATE SETUP
------------------------------------------------------------------------------

The optimization will be done in new redundant internal coordinates
Making redundant internal coordinates   ...  (new redundants) done
Evaluating the initial hessian          ...  (Almloef) done
Evaluating the coordinates              ...  done
Calculating the B-matrix                .... done
Calculating the G-matrix                .... done
Diagonalizing the G-matrix              .... done
The first mode is                       ....   69
The number of degrees of freedom        ....   21

    -----------------------------------------------------------------
                    Redundant Internal Coordinates


    -----------------------------------------------------------------
         Definition                    Initial Value    Approx d2E/dq
    -----------------------------------------------------------------
      1. B(H   1,O   0)                  0.9700         0.501182   
      2. B(H   2,O   0)                  0.9582         0.523473   
      3. B(O   3,H   1)                  1.9251         0.015003   
      4. B(H   4,O   3)                  0.9581         0.523592   
      5. B(H   5,H   1)                  2.1478         0.001415   
      6. B(H   5,O   3)                  0.9707         0.499960   
      7. B(O   6,H   5)                  1.9054         0.016129   
      8. B(H   7,O   0)                  1.9038         0.016228   
      9. B(H   7,H   5)                  2.1253         0.001537   
     10. B(H   7,O   6)                  0.9706         0.500180   
     11. B(H   7,H   1)                  2.1410         0.001451   
     12. B(H   8,O   6)                  0.9584         0.522930   
     13. A(H   1,O   0,H   2)          105.7245         0.320256   
     14. A(H   1,O   0,H   7)           90.2888         0.194349   
     15. A(H   2,O   0,H   7)          127.8445         0.195392   
     16. A(O   0,H   1,O   3)          148.4799         0.192494   
     17. A(O   3,H   1,H   5)           26.8674         0.111178   
     18. A(O   0,H   1,H   7)           62.7710         0.138348   
     19. A(O   3,H   1,H   7)           86.2705         0.111303   
     20. A(H   5,H   1,H   7)           59.4119         0.099575   
     21. A(O   0,H   1,H   5)          121.9527         0.138071   
     22. A(H   1,O   3,H   4)          131.0713         0.193524   
     23. A(H   1,O   3,H   5)           89.4564         0.192437   
     24. A(H   4,O   3,H   5)          105.6664         0.320141   
     25. A(H   1,H   5,O   3)           63.6762         0.138044   
     26. A(H   1,H   5,H   7)           60.1355         0.099714   
     27. A(O   3,H   5,H   7)          123.7906         0.138969   
     28. A(H   1,H   5,O   6)           87.2821         0.111545   
     29. A(O   6,H   5,H   7)           27.1690         0.111970   
     30. A(O   3,H   5,O   6)          150.9551         0.194146   
     31. A(H   7,O   6,H   8)          105.4575         0.320097   
     32. A(H   5,O   6,H   8)          124.0032         0.195220   
     33. A(H   5,O   6,H   7)           89.1365         0.194156   
     34. A(H   1,H   7,H   5)           60.4525         0.099774   
     35. A(O   0,H   7,H   5)           87.2922         0.112001   
     36. A(O   0,H   7,O   6)          150.9865         0.194302   
     37. A(H   5,H   7,O   6)           63.6945         0.138974   
     38. A(O   0,H   7,H   1)           26.9402         0.111703   
     39. A(H   1,H   7,O   6)          124.0937         0.138326   
     40. D(O   3,H   1,O   0,H   7)    -11.7716         0.380639   
     41. D(H   7,H   1,O   0,H   2)   -129.7025         0.380639   
     42. D(H   5,H   1,O   0,H   7)     -5.4848         0.380639   
     43. D(H   5,H   1,O   0,H   2)   -135.1873         0.380639   
     44. D(O   3,H   1,O   0,H   2)   -141.4741         0.380639   
     45. D(H   5,O   3,H   1,O   0)     11.8642         0.001643   
     46. D(H   4,O   3,H   1,O   0)    122.3477         0.001643   
     47. D(H   4,O   3,H   1,H   5)    110.4835         0.001643   
     48. D(H   5,O   3,H   1,H   7)      1.3903         0.001643   
     49. D(H   4,O   3,H   1,H   7)    111.8738         0.001643   
     50. D(O   6,H   5,H   1,H   7)      1.1646         0.001523   
     51. D(O   6,H   5,H   1,O   0)      6.8305         0.001523   
     52. D(O   3,H   5,H   1,H   7)   -178.3883         0.001523   
     53. D(O   6,H   5,H   1,O   3)    179.5529         0.001523   
     54. D(O   6,H   5,O   3,H   1)     -0.9199         0.378251   
     55. D(H   7,H   5,O   3,H   4)   -134.5033         0.378251   
     56. D(O   6,H   5,O   3,H   4)   -133.7414         0.378251   
     57. D(H   1,H   5,O   3,H   4)   -132.8215         0.378251   
     58. D(O   3,H   5,H   1,O   0)   -172.7224         0.001523   
     59. D(H   7,H   5,O   3,H   1)     -1.6818         0.378251   
     60. D(H   7,H   5,H   1,O   3)    178.3883         0.001523   
     61. D(H   7,H   5,H   1,O   0)      5.6659         0.001523   
     62. D(H   8,O   6,H   5,H   7)   -108.1417         0.001665   
     63. D(H   8,O   6,H   5,H   1)   -110.3539         0.001665   
     64. D(H   7,O   6,H   5,H   1)     -2.2122         0.001665   
     65. D(H   8,O   6,H   5,O   3)   -109.5285         0.001665   
     66. D(H   7,O   6,H   5,O   3)     -1.3868         0.001665   
     67. D(H   5,H   7,O   0,H   1)      4.7063         0.001667   
     68. D(H   1,H   7,O   0,H   2)    110.3109         0.001667   
     69. D(O   6,H   7,O   0,H   2)    114.8337         0.001667   
     70. D(O   6,H   7,O   0,H   1)      4.5228         0.001667   
     71. D(H   5,H   7,O   6,H   8)    125.1784         0.378680   
     72. D(H   1,H   7,O   6,H   5)      2.6771         0.378680   
     73. D(H   1,H   7,O   6,H   8)    127.8555         0.378680   
     74. D(O   0,H   7,O   6,H   5)      0.2045         0.378680   
     75. D(H   1,H   7,H   5,O   6)   -177.4517         0.001528   
     76. D(H   1,H   7,H   5,O   3)      1.7382         0.001528   
     77. D(O   0,H   7,H   5,O   6)   -179.9007         0.001528   
     78. D(O   0,H   7,H   5,H   1)     -2.4490         0.001528   
     79. D(O   0,H   7,H   5,O   3)     -0.7108         0.001528   
     80. D(O   6,H   7,H   5,H   1)    177.4517         0.001528   
     81. D(O   6,H   7,H   5,O   3)    179.1899         0.001528   
     82. D(H   5,H   7,H   1,O   3)     -0.7298         0.001525   
     83. D(H   5,H   7,H   1,O   0)   -174.5942         0.001525   
     84. D(O   0,H   7,H   1,H   5)    174.5942         0.001525   
     85. D(O   0,H   7,O   6,H   8)    125.3829         0.378680   
     86. D(O   0,H   7,H   1,O   3)    173.8644         0.001525   
     87. D(O   6,H   7,H   1,H   5)     -2.7587         0.001525   
     88. D(O   6,H   7,H   1,O   3)     -3.4885         0.001525   
     89. D(O   6,H   7,H   1,O   0)   -177.3529         0.001525   
     90. D(H   5,H   7,O   0,H   2)    115.0172         0.001667   
    -----------------------------------------------------------------

Number of atoms                         .... 9
Number of degrees of freedom            .... 90

         *************************************************************
         *                GEOMETRY OPTIMIZATION CYCLE   1            *
         *************************************************************
---------------------------------
CARTESIAN COORDINATES (ANGSTROEM)
---------------------------------
  O     -1.476811   -0.647642   -0.082126
  H     -0.613415   -1.087457   -0.037065
  H     -2.026236   -1.086841    0.568502
  O      1.305672   -0.945117   -0.091536
  H      1.973931   -1.196903    0.547209
  H      1.226840    0.019839   -0.021857
  O      0.169678    1.599733    0.108456
  H     -0.629586    1.051269    0.060063
  H      0.080159    2.244313   -0.595195

----------------------------
CARTESIAN COORDINATES (A.U.)
----------------------------
  NO LB      ZA    FRAG     MASS         X           Y           Z
   0 O     8.0000    0    15.999   -2.790768   -1.223866   -0.155196
   1 H     1.0000    0     1.008   -1.159186   -2.054996   -0.070043
   2 H     1.0000    0     1.008   -3.829031   -2.053832    1.074313
   3 O     8.0000    0    15.999    2.467363   -1.786012   -0.172978
   4 H     1.0000    0     1.008    3.730189   -2.261819    1.034075
   5 H     1.0000    0     1.008    2.318392    0.037490   -0.041304
   6 O     8.0000    0    15.999    0.320645    3.023057    0.204952
   7 H     1.0000    0     1.008   -1.189745    1.986611    0.113503
   8 H     1.0000    0     1.008    0.151479    4.241137   -1.124756

--------------------------------
INTERNAL COORDINATES (ANGSTROEM)
--------------------------------
 O      0   0   0     0.000000000000     0.00000000     0.00000000
 H      1   0   0     0.970010505491     0.00000000     0.00000000
 H      1   2   0     0.958165114482   105.72451778     0.00000000
 O      2   1   3     1.925129262935   148.47990843   218.52590542
 H      4   2   1     0.958103050774   131.07133552   122.34770223
 H      4   2   1     0.970674883368    89.45639618    11.86423463
 O      6   4   2     1.905423318701   150.95508604   359.08013207
 H      7   6   4     0.970555296437    89.13650572   358.61319453
 H      7   6   4     0.958447576846   124.00318504   250.47153616

---------------------------
INTERNAL COORDINATES (A.U.)
---------------------------
 O      0   0   0     0.000000000000     0.00000000     0.00000000
 H      1   0   0     1.833054202404     0.00000000     0.00000000
 H      1   2   0     1.810669657448   105.72451778     0.00000000
 O      2   1   3     3.637967079345   148.47990843   218.52590542
 H      4   2   1     1.810552374037   131.07133552   122.34770223
 H      4   2   1     1.834309694641    89.45639618    11.86423463
 O      6   4   2     3.600728241532   150.95508604   359.08013207
 H      7   6   4     1.834083708092    89.13650572   358.61319453
 H      7   6   4     1.811203433959   124.00318504   250.47153616

---------------------
BASIS SET INFORMATION
---------------------
There are 2 groups of distinct atoms

 Group   1 Type O   : 19s6p3d2f contracted to 5s4p3d2f pattern {88111/3111/111/11}
 Group   2 Type H   : 6s3p2d contracted to 4s3p2d pattern {3111/111/11}

Atom   0O    basis set group =>   1
Atom   1H    basis set group =>   2
Atom   2H    basis set group =>   2
Atom   3O    basis set group =>   1
Atom   4H    basis set group =>   2
Atom   5H    basis set group =>   2
Atom   6O    basis set group =>   1
Atom   7H    basis set group =>   2
Atom   8H    basis set group =>   2
---------------------------------
AUXILIARY/J BASIS SET INFORMATION
---------------------------------
There are 2 groups of distinct atoms

 Group   1 Type O   : 12s5p4d2f1g contracted to 6s4p3d1f1g pattern {711111/2111/211/2/1}
 Group   2 Type H   : 5s2p1d contracted to 3s1p1d pattern {311/2/1}

Atom   0O    basis set group =>   1
Atom   1H    basis set group =>   2
Atom   2H    basis set group =>   2
Atom   3O    basis set group =>   1
Atom   4H    basis set group =>   2
Atom   5H    basis set group =>   2
Atom   6O    basis set group =>   1
Atom   7H    basis set group =>   2
Atom   8H    basis set group =>   2


           ************************************************************
           *        Program running with 24 parallel MPI-processes    *
           *              working on a common directory               *
           ************************************************************
------------------------------------------------------------------------------
                           ORCA GTO INTEGRAL CALCULATION
                           -- RI-GTO INTEGRALS CHOSEN --
------------------------------------------------------------------------------

                         BASIS SET STATISTICS AND STARTUP INFO

Gaussian basis set:
 # of primitive gaussian shells          ...  156
 # of primitive gaussian functions       ...  348
 # of contracted shells                  ...   96
 # of contracted basis functions         ...  276
 Highest angular momentum                ...    3
 Maximum contraction depth               ...    8
Auxiliary gaussian basis set:
 # of primitive gaussian shells          ...  120
 # of primitive gaussian functions       ...  306
 # of contracted shells                  ...   75
 # of contracted aux-basis functions     ...  213
 Highest angular momentum                ...    4
 Maximum contraction depth               ...    7
Ratio of auxiliary to basis functions    ...  0.77
Integral package used                  ... LIBINT
 One Electron integrals                  ... done
 Ordering auxiliary basis shells         ... done
 Integral threshhold             Thresh  ...  2.500e-11
 Primitive cut-off               TCut    ...  2.500e-12
 Pre-screening matrix                    ... done
 Shell pair data                         ... 
 Ordering of the shell pairs             ... done (   0.001 sec) 4594 of 4656 pairs
 Determination of significant pairs      ... done (   0.000 sec)
 Creation of shell pair data             ... done (   0.001 sec)
 Storage of shell pair data              ... done (   0.022 sec)
 Shell pair data done in (   0.023 sec)
 Computing two index integrals           ... done
 Cholesky decomposition of the V-matrix  ... done


Timings:
 Total evaluation time                   ...   0.272 sec (  0.005 min)
 One electron matrix time                ...   0.034 sec (  0.001 min) = 12.5%
 Schwartz matrix evaluation time         ...   0.112 sec (  0.002 min) = 41.2%
 Two index repulsion integral time       ...   0.001 sec (  0.000 min) =  0.4%
 Cholesky decomposition of V             ...   0.077 sec (  0.001 min) = 28.4%
 Three index repulsion integral time     ...   0.000 sec (  0.000 min) =  0.0%



           ************************************************************
           *        Program running with 24 parallel MPI-processes    *
           *              working on a common directory               *
           ************************************************************
-------------------------------------------------------------------------------
                                 ORCA SCF
-------------------------------------------------------------------------------

------------
SCF SETTINGS
------------
Hamiltonian:
 Density Functional     Method          .... DFT(GTOs)
 Exchange Functional    Exchange        .... SCAN
 Correlation Functional Correlation     .... SCAN
 Gradients option       PostSCFGGA      .... off
   Density functional embedding theory  .... OFF
   NL short-range parameter             ....  6.400000
 RI-approximation to the Coulomb term is turned on
   Number of auxiliary basis functions  .... 213


General Settings:
 Integral files         IntName         .... 03_H2O_3
 Hartree-Fock type      HFTyp           .... RHF
 Total Charge           Charge          ....    0
 Multiplicity           Mult            ....    1
 Number of Electrons    NEL             ....   30
 Basis Dimension        Dim             ....  276
 Nuclear Repulsion      ENuc            ....     84.5280316478 Eh

Convergence Acceleration:
 DIIS                   CNVDIIS         .... on
   Start iteration      DIISMaxIt       ....    12
   Startup error        DIISStart       ....  0.200000
   # of expansion vecs  DIISMaxEq       ....     5
   Bias factor          DIISBfac        ....   1.050
   Max. coefficient     DIISMaxC        ....  10.000
 Newton-Raphson         CNVNR           .... off
 SOSCF                  CNVSOSCF        .... on
   Start iteration      SOSCFMaxIt      ....   150
   Startup grad/error   SOSCFStart      ....  0.003300
 Level Shifting         CNVShift        .... on
   Level shift para.    LevelShift      ....    0.2500
   Turn off err/grad.   ShiftErr        ....    0.0010
 Zerner damping         CNVZerner       .... off
 Static damping         CNVDamp         .... on
   Fraction old density DampFac         ....    0.7000
   Max. Damping (<1)    DampMax         ....    0.9800
   Min. Damping (>=0)   DampMin         ....    0.0000
   Turn off err/grad.   DampErr         ....    0.1000
 Fernandez-Rico         CNVRico         .... off

SCF Procedure:
 Maximum # iterations   MaxIter         ....   125
 SCF integral mode      SCFMode         .... Direct
   Integral package                     .... LIBINT
 Reset frequency        DirectResetFreq ....    20
 Integral Threshold     Thresh          ....  2.500e-11 Eh
 Primitive CutOff       TCut            ....  2.500e-12 Eh

Convergence Tolerance:
 Convergence Check Mode ConvCheckMode   .... Total+1el-Energy
 Convergence forced     ConvForced      .... 0
 Energy Change          TolE            ....  1.000e-08 Eh
 1-El. energy change                    ....  1.000e-05 Eh
 Orbital Gradient       TolG            ....  1.000e-05
 Orbital Rotation angle TolX            ....  1.000e-05
 DIIS Error             TolErr          ....  5.000e-07


Diagonalization of the overlap matrix:
Smallest eigenvalue                        ... 1.498e-04
Time for diagonalization                   ...    0.035 sec
Threshold for overlap eigenvalues          ... 1.000e-08
Number of eigenvalues below threshold      ... 0
Time for construction of square roots      ...    0.007 sec
Total time needed                          ...    0.043 sec

-------------------
DFT GRID GENERATION
-------------------

General Integration Accuracy     IntAcc      ...  4.670
Radial Grid Type                 RadialGrid  ... Gauss-Chebyshev
Angular Grid (max. acc.)         AngularGrid ... Lebedev-302
Angular grid pruning method      GridPruning ... 3 (G Style)
Weight generation scheme         WeightScheme... Becke
Basis function cutoff            BFCut       ...    1.0000e-11
Integration weight cutoff        WCut        ...    1.0000e-14
Grids for H and He will be reduced by one unit

# of grid points (after initial pruning)     ...  39000 (   0.0 sec)
# of grid points (after weights+screening)   ...  37273 (   0.0 sec)
nearest neighbour list constructed           ...    0.0 sec
Grid point re-assignment to atoms done       ...    0.0 sec
Grid point division into batches done        ...    0.1 sec
Reduced shell lists constructed in    0.1 sec

Total number of grid points                  ...    37273
Total number of batches                      ...      587
Average number of points per batch           ...       63
Average number of grid points per atom       ...     4141
Average number of shells per batch           ...    67.88 (70.71%)
Average number of basis functions per batch  ...   188.81 (68.41%)
Average number of large shells per batch     ...    56.00 (82.49%)
Average number of large basis fcns per batch ...   152.69 (80.87%)
Maximum spatial batch extension              ...   9.52, 16.88, 10.93 au
Average spatial batch extension              ...   0.14,  0.16,  0.15 au

Time for grid setup =    0.143 sec

------------------------------
INITIAL GUESS: MODEL POTENTIAL
------------------------------
Loading Hartree-Fock densities                     ... done
Calculating cut-offs                               ... done
Setting up the integral package                    ... done
Initializing the effective Hamiltonian             ... done
Starting the Coulomb interaction                   ... done (   0.0 sec)
Reading the grid                                   ... done
Mapping shells                                     ... done
Starting the XC term evaluation                    ... done (   0.0 sec)
  promolecular density results
     # of electrons  =     29.996930767
     EX              =    -28.939622797
     EC              =     -0.481025431
     EX+EC           =    -29.420648228
Transforming the Hamiltonian                       ... done (   0.0 sec)
Diagonalizing the Hamiltonian                      ... done (   0.0 sec)
Back transforming the eigenvectors                 ... done (   0.0 sec)
Now organizing SCF variables                       ... done
                      ------------------
                      INITIAL GUESS DONE (   0.3 sec)
                      ------------------
--------------
SCF ITERATIONS
--------------
ITER       Energy         Delta-E        Max-DP      RMS-DP      [F,P]     Damp
               ***  Starting incremental Fock matrix formation  ***
  0   -228.6550892244   0.000000000000 0.06502757  0.00148555  0.5581313 0.7000
  1   -228.9857164830  -0.330627258618 0.03023852  0.00072731  0.2210578 0.7000
                               ***Turning on DIIS***
  2   -229.0829749647  -0.097258481717 0.04162109  0.00085587  0.0528631 0.0000
  3   -229.2715729771  -0.188598012379 0.00527571  0.00014557  0.1172985 0.7000
  4   -229.2844404669  -0.012867489844 0.01712983  0.00047069  0.0886078 0.0000
  5   -229.3065546377  -0.022114170825 0.00440102  0.00008108  0.0034985 0.0000
                      *** Initiating the SOSCF procedure ***
                           *** Shutting down DIIS ***
                      *** Re-Reading the Fockian *** 
                      *** Removing any level shift *** 
ITER      Energy       Delta-E        Grad      Rot      Max-DP    RMS-DP
  6   -229.30665312  -0.0000984799  0.000412  0.000412  0.001539  0.000032
               *** Restarting incremental Fock matrix formation ***
  7   -229.30666621  -0.0000130922  0.000208  0.000630  0.001618  0.000029
  8   -229.30666667  -0.0000004626  0.000168  0.000233  0.000331  0.000008
  9   -229.30666888  -0.0000022087  0.000043  0.000135  0.000486  0.000009
 10   -229.30666899  -0.0000001060  0.000012  0.000013  0.000042  0.000001
 11   -229.30666900  -0.0000000088  0.000007  0.000022  0.000049  0.000001
 12   -229.30666900  -0.0000000029  0.000004  0.000006  0.000012  0.000000
                  ***Gradient check signals convergence***
              ***Rediagonalizing the Fockian in SOSCF/NRSCF***

               *****************************************************
               *                     SUCCESS                       *
               *           SCF CONVERGED AFTER  13 CYCLES          *
               *****************************************************


----------------
TOTAL SCF ENERGY
----------------

Total Energy       :         -229.30666900 Eh           -6239.75169 eV

Components:
Nuclear Repulsion  :           84.52803165 Eh            2300.12468 eV
Electronic Energy  :         -313.83470065 Eh           -8539.87636 eV
One Electron Energy:         -483.09847787 Eh          -13145.77790 eV
Two Electron Energy:          169.26377723 Eh            4605.90154 eV

Virial components:
Potential Energy   :         -457.38316376 Eh          -12446.02863 eV
Kinetic Energy     :          228.07649476 Eh            6206.27694 eV
Virial Ratio       :            2.00539369


DFT components:
N(Alpha)           :       14.999962191774 electrons
N(Beta)            :       14.999962191774 electrons
N(Total)           :       29.999924383548 electrons
E(X)               :      -26.950709145053 Eh       
E(C)               :       -0.965426177288 Eh       
E(XC)              :      -27.916135322341 Eh       
DFET-embed. en.    :        0.000000000000 Eh       

---------------
SCF CONVERGENCE
---------------

  Last Energy change         ...   -1.9722e-09  Tolerance :   1.0000e-08
  Last MAX-Density change    ...    9.6228e-06  Tolerance :   1.0000e-07
  Last RMS-Density change    ...    1.7702e-07  Tolerance :   5.0000e-09
  Last Orbital Gradient      ...    1.9404e-06  Tolerance :   1.0000e-05
  Last Orbital Rotation      ...    2.6229e-06  Tolerance :   1.0000e-05

             **** THE GBW FILE WAS UPDATED (03_H2O_3.gbw) ****
             **** DENSITY FILE WAS UPDATED (03_H2O_3.scfp) ****
             **** ENERGY FILE WAS UPDATED (03_H2O_3.en.tmp) ****
             **** THE GBW FILE WAS UPDATED (03_H2O_3.gbw) ****
             **** DENSITY FILE WAS UPDATED (03_H2O_3.scfp) ****
----------------
ORBITAL ENERGIES
----------------

  NO   OCC          E(Eh)            E(eV) 
   0   2.0000     -18.963280      -516.0171 
   1   2.0000     -18.961689      -515.9738 
   2   2.0000     -18.960824      -515.9503 
   3   2.0000      -0.990357       -26.9490 
   4   2.0000      -0.975508       -26.5449 
   5   2.0000      -0.974047       -26.5052 
   6   2.0000      -0.518867       -14.1191 
   7   2.0000      -0.491774       -13.3819 
   8   2.0000      -0.490014       -13.3340 
   9   2.0000      -0.373932       -10.1752 
  10   2.0000      -0.369406       -10.0521 
  11   2.0000      -0.341648        -9.2967 
  12   2.0000      -0.290747        -7.9116 
  13   2.0000      -0.283173        -7.7055 
  14   2.0000      -0.277953        -7.5635 
  15   0.0000      -0.015305        -0.4165 
  16   0.0000       0.014826         0.4034 
  17   0.0000       0.016004         0.4355 
  18   0.0000       0.047040         1.2800 
  19   0.0000       0.054925         1.4946 
  20   0.0000       0.059174         1.6102 
  21   0.0000       0.085680         2.3315 
  22   0.0000       0.093243         2.5373 
  23   0.0000       0.100894         2.7455 
  24   0.0000       0.103689         2.8215 
  25   0.0000       0.123107         3.3499 
  26   0.0000       0.131467         3.5774 
  27   0.0000       0.155601         4.2341 
  28   0.0000       0.159829         4.3492 
  29   0.0000       0.163755         4.4560 
  30   0.0000       0.166456         4.5295 
  31   0.0000       0.171050         4.6545 
  32   0.0000       0.181288         4.9331 
  33   0.0000       0.192054         5.2261 
  34   0.0000       0.200238         5.4488 
  35   0.0000       0.203575         5.5396 
  36   0.0000       0.222285         6.0487 
  37   0.0000       0.249777         6.7968 
  38   0.0000       0.250914         6.8277 
  39   0.0000       0.278328         7.5737 
  40   0.0000       0.290174         7.8960 
  41   0.0000       0.300594         8.1796 
  42   0.0000       0.311150         8.4668 
  43   0.0000       0.316996         8.6259 
  44   0.0000       0.336720         9.1626 
  45   0.0000       0.341539         9.2937 
  46   0.0000       0.345916         9.4128 
  47   0.0000       0.356032         9.6881 
  48   0.0000       0.364762         9.9257 
  49   0.0000       0.366779         9.9806 
  50   0.0000       0.373881        10.1738 
  51   0.0000       0.384498        10.4627 
  52   0.0000       0.395017        10.7490 
  53   0.0000       0.410714        11.1761 
  54   0.0000       0.457601        12.4520 
  55   0.0000       0.468317        12.7435 
  56   0.0000       0.471969        12.8429 
  57   0.0000       0.485898        13.2220 
  58   0.0000       0.536308        14.5937 
  59   0.0000       0.539125        14.6703 
  60   0.0000       0.552952        15.0466 
  61   0.0000       0.595589        16.2068 
  62   0.0000       0.613187        16.6857 
  63   0.0000       0.628849        17.1118 
  64   0.0000       0.644086        17.5265 
  65   0.0000       0.651501        17.7283 
  66   0.0000       0.659550        17.9473 
  67   0.0000       0.673757        18.3338 
  68   0.0000       0.684622        18.6295 
  69   0.0000       0.714800        19.4507 
  70   0.0000       0.720737        19.6122 
  71   0.0000       0.732120        19.9220 
  72   0.0000       0.745728        20.2923 
  73   0.0000       0.779795        21.2193 
  74   0.0000       0.804774        21.8990 
  75   0.0000       0.810426        22.0528 
  76   0.0000       0.818189        22.2641 
  77   0.0000       0.827953        22.5297 
  78   0.0000       0.834291        22.7022 
  79   0.0000       0.851824        23.1793 
  80   0.0000       0.857770        23.3411 
  81   0.0000       0.876625        23.8542 
  82   0.0000       0.878202        23.8971 
  83   0.0000       0.895873        24.3779 
  84   0.0000       0.912882        24.8408 
  85   0.0000       0.929277        25.2869 
  86   0.0000       0.933712        25.4076 
  87   0.0000       0.945455        25.7271 
  88   0.0000       0.954752        25.9801 
  89   0.0000       0.959972        26.1222 
  90   0.0000       0.994090        27.0506 
  91   0.0000       1.023339        27.8465 
  92   0.0000       1.040609        28.3164 
  93   0.0000       1.050949        28.5978 
  94   0.0000       1.058501        28.8033 
  95   0.0000       1.074724        29.2447 
  96   0.0000       1.080589        29.4043 
  97   0.0000       1.099344        29.9147 
  98   0.0000       1.113998        30.3134 
  99   0.0000       1.121465        30.5166 
 100   0.0000       1.141544        31.0630 
 101   0.0000       1.183114        32.1942 
 102   0.0000       1.186990        32.2996 
 103   0.0000       1.214961        33.0608 
 104   0.0000       1.219775        33.1918 
 105   0.0000       1.230276        33.4775 
 106   0.0000       1.239804        33.7368 
 107   0.0000       1.262079        34.3429 
 108   0.0000       1.273699        34.6591 
 109   0.0000       1.307805        35.5872 
 110   0.0000       1.316729        35.8300 
 111   0.0000       1.356350        36.9082 
 112   0.0000       1.373838        37.3840 
 113   0.0000       1.408160        38.3180 
 114   0.0000       1.423310        38.7302 
 115   0.0000       1.442494        39.2523 
 116   0.0000       1.460193        39.7339 
 117   0.0000       1.470596        40.0169 
 118   0.0000       1.516383        41.2629 
 119   0.0000       1.522471        41.4285 
 120   0.0000       1.555721        42.3333 
 121   0.0000       1.594766        43.3958 
 122   0.0000       1.611237        43.8440 
 123   0.0000       1.624145        44.1952 
 124   0.0000       1.662438        45.2372 
 125   0.0000       1.693198        46.0742 
 126   0.0000       1.714058        46.6419 
 127   0.0000       1.781747        48.4838 
 128   0.0000       1.806647        49.1614 
 129   0.0000       1.814858        49.3848 
 130   0.0000       1.849167        50.3184 
 131   0.0000       1.884378        51.2765 
 132   0.0000       1.919620        52.2355 
 133   0.0000       1.932035        52.5733 
 134   0.0000       1.948187        53.0129 
 135   0.0000       2.072074        56.3840 
 136   0.0000       2.146179        58.4005 
 137   0.0000       2.172254        59.1100 
 138   0.0000       2.190962        59.6191 
 139   0.0000       2.199059        59.8394 
 140   0.0000       2.223114        60.4940 
 141   0.0000       2.228381        60.6373 
 142   0.0000       2.246369        61.1268 
 143   0.0000       2.270004        61.7700 
 144   0.0000       2.284129        62.1543 
 145   0.0000       2.287124        62.2358 
 146   0.0000       2.311819        62.9078 
 147   0.0000       2.329282        63.3830 
 148   0.0000       2.342209        63.7347 
 149   0.0000       2.352113        64.0043 
 150   0.0000       2.385575        64.9148 
 151   0.0000       2.386148        64.9304 
 152   0.0000       2.423553        65.9482 
 153   0.0000       2.445756        66.5524 
 154   0.0000       2.499797        68.0229 
 155   0.0000       2.511605        68.3443 
 156   0.0000       2.592506        70.5457 
 157   0.0000       2.597503        70.6817 
 158   0.0000       2.610651        71.0394 
 159   0.0000       2.626619        71.4739 
 160   0.0000       2.633917        71.6725 
 161   0.0000       2.665169        72.5229 
 162   0.0000       2.674079        72.7654 
 163   0.0000       2.718948        73.9863 
 164   0.0000       2.733789        74.3902 
 165   0.0000       2.744757        74.6886 
 166   0.0000       2.755133        74.9710 
 167   0.0000       2.784828        75.7790 
 168   0.0000       2.828283        76.9615 
 169   0.0000       2.869616        78.0862 
 170   0.0000       2.886658        78.5500 
 171   0.0000       2.896561        78.8194 
 172   0.0000       3.021146        82.2096 
 173   0.0000       3.047684        82.9317 
 174   0.0000       3.638518        99.0091 
 175   0.0000       3.654641        99.4478 
 176   0.0000       3.688501       100.3692 
 177   0.0000       3.835799       104.3774 
 178   0.0000       3.849469       104.7494 
 179   0.0000       3.856926       104.9523 
 180   0.0000       3.929748       106.9339 
 181   0.0000       3.939908       107.2103 
 182   0.0000       3.968823       107.9972 
 183   0.0000       4.072435       110.8166 
 184   0.0000       4.098976       111.5388 
 185   0.0000       4.118879       112.0804 
 186   0.0000       4.126802       112.2960 
 187   0.0000       4.133494       112.4781 
 188   0.0000       4.161245       113.2332 
 189   0.0000       4.169751       113.4647 
 190   0.0000       4.193927       114.1226 
 191   0.0000       4.222550       114.9014 
 192   0.0000       4.286013       116.6283 
 193   0.0000       4.321139       117.5842 
 194   0.0000       4.336703       118.0077 
 195   0.0000       4.357760       118.5807 
 196   0.0000       4.367879       118.8560 
 197   0.0000       4.384070       119.2966 
 198   0.0000       4.405566       119.8815 
 199   0.0000       4.417607       120.2092 
 200   0.0000       4.442040       120.8741 
 201   0.0000       4.502778       122.5268 
 202   0.0000       4.520332       123.0045 
 203   0.0000       4.530310       123.2760 
 204   0.0000       4.543242       123.6279 
 205   0.0000       4.607746       125.3831 
 206   0.0000       4.628890       125.9585 
 207   0.0000       4.683501       127.4445 
 208   0.0000       4.713520       128.2614 
 209   0.0000       4.717272       128.3635 
 210   0.0000       4.808025       130.8330 
 211   0.0000       4.847401       131.9045 
 212   0.0000       4.862043       132.3029 
 213   0.0000       5.027753       136.8121 
 214   0.0000       5.048325       137.3719 
 215   0.0000       5.057368       137.6180 
 216   0.0000       5.073653       138.0611 
 217   0.0000       5.113162       139.1362 
 218   0.0000       5.134542       139.7180 
 219   0.0000       5.155330       140.2837 
 220   0.0000       5.195127       141.3666 
 221   0.0000       5.206066       141.6642 
 222   0.0000       5.217669       141.9800 
 223   0.0000       5.314046       144.6026 
 224   0.0000       5.320181       144.7695 
 225   0.0000       5.391376       146.7068 
 226   0.0000       5.401020       146.9692 
 227   0.0000       5.482158       149.1771 
 228   0.0000       5.602428       152.4498 
 229   0.0000       5.621543       152.9700 
 230   0.0000       5.638273       153.4252 
 231   0.0000       6.045214       164.4986 
 232   0.0000       6.062953       164.9813 
 233   0.0000       6.097087       165.9102 
 234   0.0000       6.321495       172.0166 
 235   0.0000       6.336013       172.4117 
 236   0.0000       6.372389       173.4015 
 237   0.0000       6.551853       178.2850 
 238   0.0000       6.577062       178.9709 
 239   0.0000       6.583546       179.1474 
 240   0.0000       6.697743       182.2549 
 241   0.0000       6.709521       182.5753 
 242   0.0000       6.715012       182.7248 
 243   0.0000       6.881943       187.2672 
 244   0.0000       6.908053       187.9777 
 245   0.0000       6.916429       188.2056 
 246   0.0000       6.996699       190.3899 
 247   0.0000       7.005437       190.6276 
 248   0.0000       7.007183       190.6751 
 249   0.0000       7.033711       191.3970 
 250   0.0000       7.048824       191.8082 
 251   0.0000       7.054919       191.9741 
 252   0.0000       7.078454       192.6145 
 253   0.0000       7.093894       193.0347 
 254   0.0000       7.115414       193.6203 
 255   0.0000       7.126501       193.9219 
 256   0.0000       7.136609       194.1970 
 257   0.0000       7.170551       195.1206 
 258   0.0000       7.180173       195.3824 
 259   0.0000       7.269366       197.8095 
 260   0.0000       7.285246       198.2416 
 261   0.0000       7.505682       204.2400 
 262   0.0000       7.515351       204.5031 
 263   0.0000       7.606682       206.9883 
 264   0.0000       7.705534       209.6782 
 265   0.0000       7.716316       209.9716 
 266   0.0000       7.734021       210.4534 
 267   0.0000       7.848656       213.5728 
 268   0.0000       7.855653       213.7632 
 269   0.0000       7.868859       214.1225 
 270   0.0000       8.618180       234.5126 
 271   0.0000       8.620807       234.5841 
 272   0.0000       8.661990       235.7047 
 273   0.0000      15.788044       429.6145 
 274   0.0000      16.019256       435.9061 
 275   0.0000      16.159180       439.7136 

                    ********************************
                    * MULLIKEN POPULATION ANALYSIS *
                    ********************************

-----------------------
MULLIKEN ATOMIC CHARGES
-----------------------
   0 O :   -0.451683
   1 H :    0.282466
   2 H :    0.170375
   3 O :   -0.462312
   4 H :    0.166750
   5 H :    0.290542
   6 O :   -0.448629
   7 H :    0.292806
   8 H :    0.159684
Sum of atomic charges:   -0.0000000

--------------------------------
MULLIKEN REDUCED ORBITAL CHARGES
--------------------------------
  0 O s       :     3.934255  s :     3.934255
      pz      :     1.586898  p :     4.507903
      px      :     1.291414
      py      :     1.629591
      dz2     :     0.001011  d :     0.009268
      dxz     :     0.000480
      dyz     :     0.001718
      dx2y2   :     0.002953
      dxy     :     0.003105
      f0      :     0.000086  f :     0.000256
      f+1     :    -0.000037
      f-1     :     0.000094
      f+2     :    -0.000008
      f-2     :     0.000188
      f+3     :    -0.000074
      f-3     :     0.000007
  1 H s       :     0.607074  s :     0.607074
      pz      :     0.044143  p :     0.082146
      px      :    -0.000957
      py      :     0.038960
      dz2     :    -0.000183  d :     0.028314
      dxz     :     0.009930
      dyz     :     0.000779
      dx2y2   :     0.009831
      dxy     :     0.007957
  2 H s       :     0.706544  s :     0.706544
      pz      :     0.036172  p :     0.105360
      px      :     0.027424
      py      :     0.041764
      dz2     :     0.007550  d :     0.017721
      dxz     :     0.001591
      dyz     :     0.002180
      dx2y2   :     0.003290
      dxy     :     0.003109
  3 O s       :     3.931701  s :     3.931701
      pz      :     1.598323  p :     4.520394
      px      :     1.583914
      py      :     1.338156
      dz2     :     0.001346  d :     0.009877
      dxz     :     0.000675
      dyz     :     0.001369
      dx2y2   :     0.004543
      dxy     :     0.001943
      f0      :     0.000100  f :     0.000340
      f+1     :     0.000058
      f-1     :     0.000019
      f+2     :     0.000214
      f-2     :    -0.000009
      f+3     :    -0.000050
      f-3     :     0.000009
  4 H s       :     0.709761  s :     0.709761
      pz      :     0.037224  p :     0.106316
      px      :     0.036408
      py      :     0.032684
      dz2     :     0.007129  d :     0.017172
      dxz     :     0.001613
      dyz     :     0.001974
      dx2y2   :     0.003632
      dxy     :     0.002825
  5 H s       :     0.599753  s :     0.599753
      pz      :     0.042987  p :     0.079535
      px      :     0.033872
      py      :     0.002676
      dz2     :     0.000001  d :     0.030170
      dxz     :     0.000835
      dyz     :     0.011245
      dx2y2   :     0.002432
      dxy     :     0.015657
  6 O s       :     3.929628  s :     3.929628
      pz      :     1.543191  p :     4.509107
      px      :     1.511311
      py      :     1.454606
      dz2     :     0.000810  d :     0.009645
      dxz     :     0.001832
      dyz     :     0.000915
      dx2y2   :     0.001497
      dxy     :     0.004591
      f0      :     0.000050  f :     0.000249
      f+1     :     0.000058
      f-1     :    -0.000000
      f+2     :     0.000074
      f-2     :     0.000079
      f+3     :    -0.000037
      f-3     :     0.000026
  7 H s       :     0.595187  s :     0.595187
      pz      :     0.041442  p :     0.082928
      px      :     0.024134
      py      :     0.017352
      dz2     :    -0.000220  d :     0.029080
      dxz     :     0.005419
      dyz     :     0.005137
      dx2y2   :     0.015959
      dxy     :     0.002784
  8 H s       :     0.709960  s :     0.709960
      pz      :     0.032597  p :     0.112025
      px      :     0.039758
      py      :     0.039671
      dz2     :     0.007691  d :     0.018331
      dxz     :     0.003061
      dyz     :     0.001263
      dx2y2   :     0.002585
      dxy     :     0.003732


                     *******************************
                     * LOEWDIN POPULATION ANALYSIS *
                     *******************************

----------------------
LOEWDIN ATOMIC CHARGES
----------------------
   0 O :    1.102165
   1 H :   -0.620466
   2 H :   -0.473684
   3 O :    1.099555
   4 H :   -0.476290
   5 H :   -0.629945
   6 O :    1.101079
   7 H :   -0.630068
   8 H :   -0.472349

-------------------------------
LOEWDIN REDUCED ORBITAL CHARGES
-------------------------------
  0 O s       :     2.966157  s :     2.966157
      pz      :     1.322454  p :     3.823454
      px      :     1.190096
      py      :     1.310904
      dz2     :     0.013167  d :     0.090681
      dxz     :     0.017758
      dyz     :     0.009344
      dx2y2   :     0.017181
      dxy     :     0.033230
      f0      :     0.000419  f :     0.017543
      f+1     :     0.003138
      f-1     :     0.002771
      f+2     :     0.000421
      f-2     :     0.004342
      f+3     :     0.001318
      f-3     :     0.005134
  1 H s       :     0.548084  s :     0.548084
      pz      :     0.150504  p :     0.605198
      px      :     0.284943
      py      :     0.169751
      dz2     :     0.046500  d :     0.467183
      dxz     :     0.123810
      dyz     :     0.019819
      dx2y2   :     0.155599
      dxy     :     0.121455
  2 H s       :     0.586058  s :     0.586058
      pz      :     0.211353  p :     0.539272
      px      :     0.153730
      py      :     0.174189
      dz2     :     0.092340  d :     0.348354
      dxz     :     0.071245
      dyz     :     0.067876
      dx2y2   :     0.067256
      dxy     :     0.049637
  3 O s       :     2.968164  s :     2.968164
      pz      :     1.325356  p :     3.825228
      px      :     1.280500
      py      :     1.219372
      dz2     :     0.012717  d :     0.089777
      dxz     :     0.021215
      dyz     :     0.005651
      dx2y2   :     0.040329
      dxy     :     0.009864
      f0      :     0.000498  f :     0.017276
      f+1     :     0.003057
      f-1     :     0.002422
      f+2     :     0.003395
      f-2     :     0.001602
      f+3     :     0.001331
      f-3     :     0.004971
  4 H s       :     0.586761  s :     0.586761
      pz      :     0.210657  p :     0.540802
      px      :     0.193514
      py      :     0.136631
      dz2     :     0.091110  d :     0.348727
      dxz     :     0.085517
      dyz     :     0.051606
      dx2y2   :     0.061597
      dxy     :     0.058897
  5 H s       :     0.547199  s :     0.547199
      pz      :     0.151635  p :     0.610588
      px      :     0.158000
      py      :     0.300953
      dz2     :     0.047177  d :     0.472158
      dxz     :     0.007513
      dyz     :     0.137890
      dx2y2   :     0.119375
      dxy     :     0.160203
  6 O s       :     2.967011  s :     2.967011
      pz      :     1.308768  p :     3.824068
      px      :     1.280950
      py      :     1.234350
      dz2     :     0.015100  d :     0.090276
      dxz     :     0.001512
      dyz     :     0.025991
      dx2y2   :     0.014463
      dxy     :     0.033210
      f0      :     0.000260  f :     0.017565
      f+1     :     0.002386
      f-1     :     0.004595
      f+2     :     0.003117
      f-2     :     0.001071
      f+3     :     0.001262
      f-3     :     0.004875
  7 H s       :     0.546768  s :     0.546768
      pz      :     0.148917  p :     0.609866
      px      :     0.239577
      py      :     0.221373
      dz2     :     0.046275  d :     0.473434
      dxz     :     0.083452
      dyz     :     0.063483
      dx2y2   :     0.143379
      dxy     :     0.136845
  8 H s       :     0.584802  s :     0.584802
      pz      :     0.217831  p :     0.538942
      px      :     0.146209
      py      :     0.174902
      dz2     :     0.100029  d :     0.348605
      dxz     :     0.060690
      dyz     :     0.086312
      dx2y2   :     0.041190
      dxy     :     0.060385


                      *****************************
                      * MAYER POPULATION ANALYSIS *
                      *****************************

  NA   - Mulliken gross atomic population
  ZA   - Total nuclear charge
  QA   - Mulliken gross atomic charge
  VA   - Mayer's total valence
  BVA  - Mayer's bonded valence
  FA   - Mayer's free valence

  ATOM       NA         ZA         QA         VA         BVA        FA
  0 O      8.4517     8.0000    -0.4517     1.9303     1.9303     0.0000
  1 H      0.7175     1.0000     0.2825     0.9559     0.9559     0.0000
  2 H      0.8296     1.0000     0.1704     1.0706     1.0706     0.0000
  3 O      8.4623     8.0000    -0.4623     1.9156     1.9156    -0.0000
  4 H      0.8332     1.0000     0.1668     1.0776     1.0776    -0.0000
  5 H      0.7095     1.0000     0.2905     0.9485     0.9485    -0.0000
  6 O      8.4486     8.0000    -0.4486     1.9228     1.9228    -0.0000
  7 H      0.7072     1.0000     0.2928     0.9423     0.9423    -0.0000
  8 H      0.8403     1.0000     0.1597     1.0936     1.0936    -0.0000

  Mayer bond orders larger than 0.100000
B(  0-O ,  1-H ) :   0.8871 B(  0-O ,  2-H ) :   1.0413 B(  3-O ,  4-H ) :   1.0430 
B(  3-O ,  5-H ) :   0.8747 B(  6-O ,  7-H ) :   0.8735 B(  6-O ,  8-H ) :   1.0494 


-------
TIMINGS
-------

Total SCF time: 0 days 0 hours 0 min 3 sec 

Total time                  ....       3.163 sec
Sum of individual times     ....       2.970 sec  ( 93.9%)

Fock matrix formation       ....       2.500 sec  ( 79.1%)
  Split-RI-J                ....       1.221 sec  ( 48.8% of F)
  XC integration            ....       1.151 sec  ( 46.0% of F)
    Basis function eval.    ....       0.118 sec  ( 10.2% of XC)
    Density eval.           ....       0.230 sec  ( 20.0% of XC)
    XC-Functional eval.     ....       0.031 sec  (  2.7% of XC)
    XC-Potential eval.      ....       0.556 sec  ( 48.3% of XC)
Diagonalization             ....       0.082 sec  (  2.6%)
Density matrix formation    ....       0.017 sec  (  0.5%)
Population analysis         ....       0.010 sec  (  0.3%)
Initial guess               ....       0.127 sec  (  4.0%)
Orbital Transformation      ....       0.000 sec  (  0.0%)
Orbital Orthonormalization  ....       0.000 sec  (  0.0%)
DIIS solution               ....       0.035 sec  (  1.1%)
SOSCF solution              ....       0.056 sec  (  1.8%)
Grid generation             ....       0.143 sec  (  4.5%)


-------------------------------------------------------------------------------
                          DFT DISPERSION CORRECTION                            
                                                                               
                              DFTD3 V3.1  Rev 1                                
                          USING Becke-Johnson damping                          
-------------------------------------------------------------------------------
The SCAN functional is recognized
Active option DFTDOPT                   ...         4   

molecular C6(AA) [au] = 400.690546 


            DFT-D V3
 parameters
 s6 scaling factor         :     1.0000 
 a1 scaling factor         :     0.5380 
 s8 scaling factor         :     0.0000 
 a2 scaling factor         :     5.4200 
 ad hoc parameters k1-k3   :    16.0000     1.3333    -4.0000 

 Edisp/kcal,au: -0.524861736211  -0.000836420328 
 E6   /kcal   :  -0.524861736 
 E8   /kcal   :  -0.000000000 
 % E8         :   0.000000000 

-------------------------   ----------------
Dispersion correction           -0.000836420
-------------------------   ----------------


-------------------------   --------------------
FINAL SINGLE POINT ENERGY      -229.307505421185
-------------------------   --------------------



           ************************************************************
           *        Program running with 24 parallel MPI-processes    *
           *              working on a common directory               *
           ************************************************************
------------------------------------------------------------------------------
                         ORCA SCF GRADIENT CALCULATION
------------------------------------------------------------------------------

Gradient of the Kohn-Sham DFT energy:
Kohn-Sham wavefunction type      ... RKS
Hartree-Fock exchange scaling    ...    0.000
Number of operators              ...    1
Number of atoms                  ...    9
Basis set dimensions             ...  276
Integral neglect threshold       ... 2.5e-11
Integral primitive cutoff        ... 2.5e-12

Nuclear repulsion gradient       ... done
One Electron Gradient            ... done
Pre-screening matrix             ... done
RI-J gradient                    ... done
Exchange-correlation gradient    ... done
Dispersion correction            ... done

------------------
CARTESIAN GRADIENT
------------------

   1   O   :   -0.007668432    0.062235408   -0.053663681
   2   H   :   -0.004702196    0.001376977   -0.000406916
   3   H   :    0.001796333    0.001297442   -0.002529886
   4   O   :   -0.049373613   -0.037183293   -0.054029064
   5   H   :   -0.002071176    0.000908321   -0.002460828
   6   H   :    0.001318795   -0.004941482   -0.000178933
   7   O   :    0.055057339   -0.019641161    0.057631414
   8   H   :    0.003577251    0.003565046    0.000080063
   9   H   :    0.000178694   -0.001982307    0.002699080

Difference to translation invariance:
           :   -0.0018870069    0.0056349513   -0.0528587509

Norm of the cartesian gradient     ...    0.1428264681
RMS gradient                       ...    0.0274869666
MAX gradient                       ...    0.0622354083

-------
TIMINGS
-------

Total SCF gradient time            ...        1.014 sec

One electron gradient       ....       0.013 sec  (  1.3%)
Prescreening matrices       ....       0.042 sec  (  4.1%)
RI-J Coulomb gradient       ....       0.243 sec  ( 24.0%)
XC gradient                 ....       0.467 sec  ( 46.1%)
------------------------------------------------------------------------------
                         ORCA GEOMETRY RELAXATION STEP
------------------------------------------------------------------------------

Reading the OPT-File                    .... done
Getting information on internals        .... done
Copying old internal coords+grads       .... done
Making the new internal coordinates     .... (new redundants).... done
Validating the new internal coordinates .... (new redundants).... done
Calculating the B-matrix                .... done
Calculating the G,G- and P matrices     .... done
Transforming gradient to internals      .... done
Projecting the internal gradient        .... done
Number of atoms                         ....   9
Number of internal coordinates          ....  90
Current Energy                          ....  -229.307505421 Eh
Current gradient norm                   ....     0.142826468 Eh/bohr
Maximum allowed component of the step   ....  0.300
Current trust radius                    ....  0.300
Evaluating the initial hessian          ....  (Almloef) done
Projecting the Hessian                  .... done
Forming the augmented Hessian           .... done
Diagonalizing the augmented Hessian     .... done
Last element of RFO vector              ....  0.832520102
Lowest eigenvalues of augmented Hessian:
 -0.029663316  0.019294663  0.031806103  0.032634395  0.049827478
Length of the computed step             ....  0.665443197
Warning: the length of the step is outside the trust region - taking restricted step instead
The input lambda is                     ....    -0.029663
   iter:   1  x=   -0.050409  g=   17.006916 f(x)=     0.352815
   iter:   2  x=   -0.075266  g=    5.822933 f(x)=     0.144743
   iter:   3  x=   -0.095586  g=    2.465220 f(x)=     0.050093
   iter:   4  x=   -0.103528  g=    1.453829 f(x)=     0.011547
   iter:   5  x=   -0.104338  g=    1.215812 f(x)=     0.000985
   iter:   6  x=   -0.104346  g=    1.194694 f(x)=     0.000009
   iter:   7  x=   -0.104346  g=    1.194509 f(x)=     0.000000
   iter:   8  x=   -0.104346  g=    1.194509 f(x)=     0.000000
The output lambda is                    ....    -0.104346 (8 iterations)
The final length of the internal step   ....  0.300000000
Converting the step to cartesian space:
 Initial RMS(Int)=    0.0316227766
Transforming coordinates:
 Iter   0:  RMS(Cart)=    0.0424810064 RMS(Int)=    0.0316238047
 Iter   1:  RMS(Cart)=    0.0007111663 RMS(Int)=    0.0005640383
 Iter   2:  RMS(Cart)=    0.0000383509 RMS(Int)=    0.0000402117
 Iter   3:  RMS(Cart)=    0.0000020656 RMS(Int)=    0.0000013798
 Iter   4:  RMS(Cart)=    0.0000000879 RMS(Int)=    0.0000000951
done
Storing new coordinates                 .... done

                                .--------------------.
          ----------------------|Geometry convergence|-------------------------
          Item                value                   Tolerance       Converged
          ---------------------------------------------------------------------
          RMS gradient        0.0058775061            0.0001000000      NO
          MAX gradient        0.0140807029            0.0003000000      NO
          RMS step            0.0316227766            0.0020000000      NO
          MAX step            0.0938026468            0.0040000000      NO
          ........................................................
          Max(Bonds)      0.0496      Max(Angles)    3.95
          Max(Dihed)        4.58      Max(Improp)    0.00
          ---------------------------------------------------------------------

The optimization has not yet converged - more geometry cycles are needed


    ---------------------------------------------------------------------------
                         Redundant Internal Coordinates
                            (Angstroem and degrees)

        Definition                    Value    dE/dq     Step     New-Value
    ----------------------------------------------------------------------------
     1. B(H   1,O   0)                0.9700 -0.000044 -0.0004    0.9696   
     2. B(H   2,O   0)                0.9582  0.009487 -0.0080    0.9502   
     3. B(O   3,H   1)                1.9251 -0.011070  0.0389    1.9641   
     4. B(H   4,O   3)                0.9581  0.014081 -0.0119    0.9462   
     5. B(H   5,H   1)                2.1478 -0.003429  0.0267    2.1745   
     6. B(H   5,O   3)                0.9707 -0.007752  0.0068    0.9775   
     7. B(O   6,H   5)                1.9054 -0.013731  0.0496    1.9551   
     8. B(H   7,O   0)                1.9038 -0.012952  0.0477    1.9514   
     9. B(H   7,H   5)                2.1253 -0.004217  0.0321    2.1574   
    10. B(H   7,O   6)                0.9706 -0.005237  0.0046    0.9751   
    11. B(H   7,H   1)                2.1410 -0.003868  0.0304    2.1714   
    12. B(H   8,O   6)                0.9584  0.010558 -0.0089    0.9495   
    13. A(H   1,O   0,H   2)          105.72 -0.010659    2.96    108.68   
    14. A(H   1,O   0,H   7)           90.29  0.004723   -0.79     89.50   
    15. A(H   2,O   0,H   7)          127.84 -0.001226    0.13    127.97   
    16. A(O   0,H   1,O   3)          148.48 -0.007424    1.25    149.73   
    17. A(O   3,H   1,H   5)           26.87 -0.001684   -0.16     26.71   
    18. A(O   0,H   1,H   7)           62.77 -0.005184    1.22     63.99   
    19. A(O   3,H   1,H   7)           86.27 -0.001848   -0.05     86.23   
    20. A(H   5,H   1,H   7)           59.41 -0.000171    0.12     59.53   
    21. A(O   0,H   1,H   5)          121.95 -0.005604    1.38    123.33   
    22. A(H   1,O   3,H   4)          131.07  0.002478   -0.73    130.35   
    23. A(H   1,O   3,H   5)           89.46  0.006011   -0.72     88.73   
    24. A(H   4,O   3,H   5)          105.67 -0.013902    3.95    109.62   
    25. A(H   1,H   5,O   3)           63.68 -0.004327    0.89     64.56   
    26. A(H   1,H   5,H   7)           60.14 -0.000013    0.03     60.16   
    27. A(O   3,H   5,H   7)          123.79 -0.004323    0.91    124.70   
    28. A(H   1,H   5,O   6)           87.28 -0.000913   -0.28     87.00   
    29. A(O   6,H   5,H   7)           27.17 -0.000878   -0.31     26.86   
    30. A(O   3,H   5,O   6)          150.96 -0.005224    0.60    151.56   
    31. A(H   7,O   6,H   8)          105.46 -0.013923    3.93    109.39   
    32. A(H   5,O   6,H   8)          124.00 -0.001833    0.06    124.06   
    33. A(H   5,O   6,H   7)           89.14  0.006277   -0.93     88.21   
    34. A(H   1,H   7,H   5)           60.45  0.000184   -0.15     60.31   
    35. A(O   0,H   7,H   5)           87.29  0.000524   -0.54     86.75   
    36. A(O   0,H   7,O   6)          150.99 -0.004874    0.70    151.68   
    37. A(H   5,H   7,O   6)           63.69 -0.005398    1.24     64.94   
    38. A(O   0,H   7,H   1)           26.94  0.000462   -0.42     26.52   
    39. A(H   1,H   7,O   6)          124.09 -0.005264    1.10    125.20   
    40. D(O   3,H   1,O   0,H   7)    -11.77 -0.003124    0.71    -11.06   
    41. D(H   7,H   1,O   0,H   2)   -129.70  0.002121   -0.55   -130.26   
    42. D(H   5,H   1,O   0,H   7)     -5.48 -0.002920    0.55     -4.94   
    43. D(H   5,H   1,O   0,H   2)   -135.19 -0.000800   -0.00   -135.19   
    44. D(O   3,H   1,O   0,H   2)   -141.47 -0.001004    0.16   -141.31   
    45. D(H   5,O   3,H   1,O   0)     11.86  0.001822   -0.43     11.44   
    46. D(H   4,O   3,H   1,O   0)    122.35 -0.010781    4.06    126.41   
    47. D(H   4,O   3,H   1,H   5)    110.48 -0.012602    4.49    114.97   
    48. D(H   5,O   3,H   1,H   7)      1.39 -0.000479    0.09      1.48   
    49. D(H   4,O   3,H   1,H   7)    111.87 -0.013081    4.58    116.45   
    50. D(O   6,H   5,H   1,H   7)      1.16  0.000568   -0.14      1.03   
    51. D(O   6,H   5,H   1,O   0)      6.83  0.003331   -0.65      6.18   
    52. D(O   3,H   5,H   1,H   7)   -178.39 -0.000556    0.10   -178.29   
    53. D(O   6,H   5,H   1,O   3)    179.55  0.001124   -0.24    179.31   
    54. D(O   6,H   5,O   3,H   1)     -0.92  0.002465   -0.51     -1.43   
    55. D(H   7,H   5,O   3,H   4)   -134.50 -0.000792   -0.05   -134.56   
    56. D(O   6,H   5,O   3,H   4)   -133.74  0.001007   -0.44   -134.18   
    57. D(H   1,H   5,O   3,H   4)   -132.82 -0.001458    0.07   -132.75   
    58. D(O   3,H   5,H   1,O   0)   -172.72  0.002207   -0.41   -173.13   
    59. D(H   7,H   5,O   3,H   1)     -1.68  0.000665   -0.12     -1.81   
    60. D(H   7,H   5,H   1,O   3)    178.39  0.000556   -0.10    178.29   
    61. D(H   7,H   5,H   1,O   0)      5.67  0.002763   -0.51      5.15   
    62. D(H   8,O   6,H   5,H   7)   -108.14  0.012987   -4.17   -112.31   
    63. D(H   8,O   6,H   5,H   1)   -110.35  0.011842   -3.93   -114.29   
    64. D(H   7,O   6,H   5,H   1)     -2.21 -0.001146    0.24     -1.98   
    65. D(H   8,O   6,H   5,O   3)   -109.53  0.009600   -3.47   -113.00   
    66. D(H   7,O   6,H   5,O   3)     -1.39 -0.003387    0.70     -0.69   
    67. D(H   5,H   7,O   0,H   1)      4.71  0.002806   -0.55      4.15   
    68. D(H   1,H   7,O   0,H   2)    110.31 -0.010293    3.22    113.53   
    69. D(O   6,H   7,O   0,H   2)    114.83 -0.007128    2.58    117.41   
    70. D(O   6,H   7,O   0,H   1)      4.52  0.003165   -0.64      3.88   
    71. D(H   5,H   7,O   6,H   8)    125.18 -0.002329    0.45    125.63   
    72. D(H   1,H   7,O   6,H   5)      2.68  0.001223   -0.26      2.42   
    73. D(H   1,H   7,O   6,H   8)    127.86 -0.001106    0.20    128.05   
    74. D(O   0,H   7,O   6,H   5)      0.20 -0.000390    0.10      0.30   
    75. D(H   1,H   7,H   5,O   6)   -177.45  0.001318   -0.27   -177.72   
    76. D(H   1,H   7,H   5,O   3)      1.74 -0.000752    0.14      1.88   
    77. D(O   0,H   7,H   5,O   6)   -179.90 -0.000174    0.05   -179.85   
    78. D(O   0,H   7,H   5,H   1)     -2.45 -0.001492    0.32     -2.13   
    79. D(O   0,H   7,H   5,O   3)     -0.71 -0.002245    0.46     -0.25   
    80. D(O   6,H   7,H   5,H   1)    177.45 -0.001318    0.27    177.72   
    81. D(O   6,H   7,H   5,O   3)    179.19 -0.002071    0.41    179.60   
    82. D(H   5,H   7,H   1,O   3)     -0.73  0.000293   -0.04     -0.77   
    83. D(H   5,H   7,H   1,O   0)   -174.59  0.003218   -0.63   -175.22   
    84. D(O   0,H   7,H   1,H   5)    174.59 -0.003218    0.63    175.22   
    85. D(O   0,H   7,O   6,H   8)    125.38 -0.002719    0.55    125.94   
    86. D(O   0,H   7,H   1,O   3)    173.86 -0.002926    0.59    174.45   
    87. D(O   6,H   7,H   1,H   5)     -2.76 -0.001127    0.23     -2.53   
    88. D(O   6,H   7,H   1,O   3)     -3.49 -0.000834    0.19     -3.30   
    89. D(O   6,H   7,H   1,O   0)   -177.35  0.002091   -0.40   -177.75   
    90. D(H   5,H   7,O   0,H   2)    115.02 -0.007486    2.67    117.69   
    ----------------------------------------------------------------------------

         *************************************************************
         *                GEOMETRY OPTIMIZATION CYCLE   2            *
         *************************************************************
---------------------------------
CARTESIAN COORDINATES (ANGSTROEM)
---------------------------------
  O     -1.492456   -0.683019   -0.068643
  H     -0.618444   -1.100526   -0.025363
  H     -2.061068   -1.100760    0.567749
  O      1.338923   -0.948077   -0.080467
  H      1.993348   -1.242915    0.536107
  H      1.243348    0.022794   -0.019088
  O      0.148561    1.638939    0.090519
  H     -0.641902    1.069383    0.049481
  H      0.099921    2.295374   -0.593845

----------------------------
CARTESIAN COORDINATES (A.U.)
----------------------------
  NO LB      ZA    FRAG     MASS         X           Y           Z
   0 O     8.0000    0    15.999   -2.820333   -1.290719   -0.129716
   1 H     1.0000    0     1.008   -1.168689   -2.079693   -0.047929
   2 H     1.0000    0     1.008   -3.894854   -2.080135    1.072890
   3 O     8.0000    0    15.999    2.530198   -1.791606   -0.152060
   4 H     1.0000    0     1.008    3.766882   -2.348769    1.013095
   5 H     1.0000    0     1.008    2.349587    0.043075   -0.036071
   6 O     8.0000    0    15.999    0.280741    3.097146    0.171057
   7 H     1.0000    0     1.008   -1.213019    2.020842    0.093506
   8 H     1.0000    0     1.008    0.188823    4.337629   -1.122205

--------------------------------
INTERNAL COORDINATES (ANGSTROEM)
--------------------------------
 O      0   0   0     0.000000000000     0.00000000     0.00000000
 H      1   0   0     0.969578755394     0.00000000     0.00000000
 H      1   2   0     0.950168757025   108.67716005     0.00000000
 O      2   1   3     1.964067937197   149.73277875   218.68529298
 H      4   2   1     0.946236933480   130.29937779   126.39349427
 H      4   2   1     0.977493782038    88.73302540    11.42309935
 O      6   4   2     1.955120124176   151.55715412   358.57078099
 H      7   6   4     0.975146468454    88.20874752   359.31031368
 H      7   6   4     0.949540906755   124.03764503   246.99996761

---------------------------
INTERNAL COORDINATES (A.U.)
---------------------------
 O      0   0   0     0.000000000000     0.00000000     0.00000000
 H      1   0   0     1.832238312962     0.00000000     0.00000000
 H      1   2   0     1.795558731785   108.67716005     0.00000000
 O      2   1   3     3.711550509718   149.73277875   218.68529298
 H      4   2   1     1.788128662079   130.29937779   126.39349427
 H      4   2   1     1.847195545662    88.73302540    11.42309935
 O      6   4   2     3.694641593611   151.55715412   358.57078099
 H      7   6   4     1.842759765838    88.20874752   359.31031368
 H      7   6   4     1.794372266721   124.03764503   246.99996761



           ************************************************************
           *        Program running with 24 parallel MPI-processes    *
           *              working on a common directory               *
           ************************************************************
 One Electron integrals                  ... done
 Pre-screening matrix                    ... done


           ************************************************************
           *        Program running with 24 parallel MPI-processes    *
           *              working on a common directory               *
           ************************************************************

Diagonalization of the overlap matrix:
Smallest eigenvalue                        ... 1.530e-04
Time for diagonalization                   ...    0.013 sec
Threshold for overlap eigenvalues          ... 1.000e-08
Number of eigenvalues below threshold      ... 0
Time for construction of square roots      ...    0.009 sec
Total time needed                          ...    0.022 sec

-------------------
DFT GRID GENERATION
-------------------

General Integration Accuracy     IntAcc      ...  4.670
Radial Grid Type                 RadialGrid  ... Gauss-Chebyshev
Angular Grid (max. acc.)         AngularGrid ... Lebedev-302
Angular grid pruning method      GridPruning ... 3 (G Style)
Weight generation scheme         WeightScheme... Becke
Basis function cutoff            BFCut       ...    1.0000e-11
Integration weight cutoff        WCut        ...    1.0000e-14
Grids for H and He will be reduced by one unit

# of grid points (after initial pruning)     ...  39000 (   0.0 sec)
# of grid points (after weights+screening)   ...  37301 (   0.0 sec)
nearest neighbour list constructed           ...    0.0 sec
Grid point re-assignment to atoms done       ...    0.0 sec
Grid point division into batches done        ...    0.1 sec
Reduced shell lists constructed in    0.1 sec

Total number of grid points                  ...    37301
Total number of batches                      ...      588
Average number of points per batch           ...       63
Average number of grid points per atom       ...     4145
Average number of shells per batch           ...    68.31 (71.15%)
Average number of basis functions per batch  ...   189.85 (68.78%)
Average number of large shells per batch     ...    56.38 (82.55%)
Average number of large basis fcns per batch ...   154.69 (81.48%)
Maximum spatial batch extension              ...  10.38, 16.88, 11.95 au
Average spatial batch extension              ...   0.14,  0.16,  0.15 au

Time for grid setup =    0.165 sec

--------------
SCF ITERATIONS
--------------
ITER       Energy         Delta-E        Max-DP      RMS-DP      [F,P]     Damp
               ***  Starting incremental Fock matrix formation  ***
  0   -229.3037738757   0.000000000000 0.00256338  0.00006318  0.0180387 0.7000
                      *** Initiating the SOSCF procedure ***
                      *** Re-Reading the Fockian *** 
                      *** Removing any level shift *** 
ITER      Energy       Delta-E        Grad      Rot      Max-DP    RMS-DP
  1   -229.30410159  -0.0003277108  0.000511  0.000511  0.008362  0.000185
               *** Restarting incremental Fock matrix formation ***
  2   -229.30485618  -0.0007545985  0.000454  0.000602  0.002535  0.000038
  3   -229.30486112  -0.0000049357  0.000434  0.000291  0.000675  0.000012
  4   -229.30487136  -0.0000102407  0.000129  0.000127  0.000253  0.000006
  5   -229.30487193  -0.0000005639  0.000099  0.000072  0.000141  0.000003
  6   -229.30487255  -0.0000006220  0.000009  0.000016  0.000038  0.000001
  7   -229.30487254   0.0000000098  0.000014  0.000010  0.000023  0.000000
                  ***Gradient check signals convergence***
              ***Rediagonalizing the Fockian in SOSCF/NRSCF***

               *****************************************************
               *                     SUCCESS                       *
               *           SCF CONVERGED AFTER   8 CYCLES          *
               *****************************************************

Total Energy       :         -229.30487255 Eh           -6239.70280 eV
  Last Energy change         ...   -1.6771e-08  Tolerance :   1.0000e-08
  Last MAX-Density change    ...    5.8047e-06  Tolerance :   1.0000e-07
             **** THE GBW FILE WAS UPDATED (03_H2O_3.gbw) ****
             **** DENSITY FILE WAS UPDATED (03_H2O_3.scfp) ****
             **** ENERGY FILE WAS UPDATED (03_H2O_3.en.tmp) ****
             **** THE GBW FILE WAS UPDATED (03_H2O_3.gbw) ****
             **** DENSITY FILE WAS UPDATED (03_H2O_3.scfp) ****
Total SCF time: 0 days 0 hours 0 min 2 sec 


-------------------------------------------------------------------------------
                          DFT DISPERSION CORRECTION                            
                                                                               
                              DFTD3 V3.1  Rev 1                                
                          USING Becke-Johnson damping                          
-------------------------------------------------------------------------------
-------------------------   ----------------
Dispersion correction           -0.000826509
-------------------------   ----------------


-------------------------   --------------------
FINAL SINGLE POINT ENERGY      -229.305699063643
-------------------------   --------------------



           ************************************************************
           *        Program running with 24 parallel MPI-processes    *
           *              working on a common directory               *
           ************************************************************
------------------------------------------------------------------------------
                         ORCA SCF GRADIENT CALCULATION
------------------------------------------------------------------------------

Gradient of the Kohn-Sham DFT energy:
Kohn-Sham wavefunction type      ... RKS
Hartree-Fock exchange scaling    ...    0.000
Number of operators              ...    1
Number of atoms                  ...    9
Basis set dimensions             ...  276
Integral neglect threshold       ... 2.5e-11
Integral primitive cutoff        ... 2.5e-12

Nuclear repulsion gradient       ... done
One Electron Gradient            ... done
Pre-screening matrix             ... done
RI-J gradient                    ... done
Exchange-correlation gradient    ... done
Dispersion correction            ... done

------------------
CARTESIAN GRADIENT
------------------

   1   O   :   -0.014101419    0.050734473   -0.043541660
   2   H   :   -0.002372362    0.003543073   -0.003114193
   3   H   :    0.002954229    0.006728668   -0.008226708
   4   O   :   -0.031111611   -0.044698319   -0.038914966
   5   H   :   -0.010299902   -0.000852737   -0.010963790
   6   H   :   -0.003416636    0.003053042   -0.003624130
   7   O   :    0.050897732   -0.004414600    0.043986275
   8   H   :    0.000530194   -0.003007288    0.004112179
   9   H   :    0.005269576   -0.005112831    0.009601772

[...]
 H      7   6   4     1.814789484193    71.47080060     2.75142221
 H      7   6   4     1.786909145990   128.67656473   234.91680743



           ************************************************************
           *        Program running with 24 parallel MPI-processes    *
           *              working on a common directory               *
           ************************************************************
 One Electron integrals                  ... done
 Pre-screening matrix                    ... done


           ************************************************************
           *        Program running with 24 parallel MPI-processes    *
           *              working on a common directory               *
           ************************************************************

Diagonalization of the overlap matrix:
Smallest eigenvalue                        ... 2.288e-04
Time for diagonalization                   ...    0.012 sec
Threshold for overlap eigenvalues          ... 1.000e-08
Number of eigenvalues below threshold      ... 0
Time for construction of square roots      ...    0.009 sec
Total time needed                          ...    0.021 sec

-------------------
DFT GRID GENERATION
-------------------

General Integration Accuracy     IntAcc      ...  4.670
Radial Grid Type                 RadialGrid  ... Gauss-Chebyshev
Angular Grid (max. acc.)         AngularGrid ... Lebedev-302
Angular grid pruning method      GridPruning ... 3 (G Style)
Weight generation scheme         WeightScheme... Becke
Basis function cutoff            BFCut       ...    1.0000e-11
Integration weight cutoff        WCut        ...    1.0000e-14
Grids for H and He will be reduced by one unit

# of grid points (after initial pruning)     ...  39000 (   0.0 sec)
# of grid points (after weights+screening)   ...  37835 (   0.0 sec)
nearest neighbour list constructed           ...    0.0 sec
Grid point re-assignment to atoms done       ...    0.0 sec
Grid point division into batches done        ...    0.1 sec
Reduced shell lists constructed in    0.1 sec

Total number of grid points                  ...    37835
Total number of batches                      ...      595
Average number of points per batch           ...       63
Average number of grid points per atom       ...     4204
Average number of shells per batch           ...    61.65 (64.22%)
Average number of basis functions per batch  ...   168.88 (61.19%)
Average number of large shells per batch     ...    49.31 (79.98%)
Average number of large basis fcns per batch ...   131.62 (77.93%)
Maximum spatial batch extension              ...  10.42, 14.72, 10.59 au
Average spatial batch extension              ...   0.14,  0.16,  0.15 au

Time for grid setup =    0.167 sec

--------------
SCF ITERATIONS
--------------
ITER       Energy         Delta-E        Max-DP      RMS-DP      [F,P]     Damp
               ***  Starting incremental Fock matrix formation  ***
                      *** Initiating the SOSCF procedure ***
                      *** Re-Reading the Fockian *** 
                      *** Removing any level shift *** 
ITER      Energy       Delta-E        Grad      Rot      Max-DP    RMS-DP
  0   -229.26004283 -229.2600428284  0.000898  0.000898  0.001908  0.000042
               *** Restarting incremental Fock matrix formation ***
  1   -229.26010481  -0.0000619789  0.000279  0.000282  0.001083  0.000013
  2   -229.26010572  -0.0000009129  0.000392  0.000200  0.000320  0.000005
  3   -229.26010763  -0.0000019077  0.000048  0.000070  0.000139  0.000003
  4   -229.26010778  -0.0000001525  0.000016  0.000017  0.000038  0.000001
  5   -229.26010780  -0.0000000159  0.000004  0.000004  0.000009  0.000000
  6   -229.26010780  -0.0000000026  0.000003  0.000002  0.000006  0.000000
                  ***Gradient check signals convergence***
              ***Rediagonalizing the Fockian in SOSCF/NRSCF***

               *****************************************************
               *                     SUCCESS                       *
               *           SCF CONVERGED AFTER   7 CYCLES          *
               *****************************************************

Total Energy       :         -229.26010780 Eh           -6238.48469 eV
  Last Energy change         ...   -2.2459e-10  Tolerance :   1.0000e-08
  Last MAX-Density change    ...    2.2596e-06  Tolerance :   1.0000e-07
             **** THE GBW FILE WAS UPDATED (03_H2O_3.gbw) ****
             **** DENSITY FILE WAS UPDATED (03_H2O_3.scfp) ****
             **** ENERGY FILE WAS UPDATED (03_H2O_3.en.tmp) ****
             **** THE GBW FILE WAS UPDATED (03_H2O_3.gbw) ****
             **** DENSITY FILE WAS UPDATED (03_H2O_3.scfp) ****
Total SCF time: 0 days 0 hours 0 min 1 sec 


-------------------------------------------------------------------------------
                          DFT DISPERSION CORRECTION                            
                                                                               
                              DFTD3 V3.1  Rev 1                                
                          USING Becke-Johnson damping                          
-------------------------------------------------------------------------------
-------------------------   ----------------
Dispersion correction           -0.000570674
-------------------------   ----------------


-------------------------   --------------------
FINAL SINGLE POINT ENERGY      -229.260678472799
-------------------------   --------------------



           ************************************************************
           *        Program running with 24 parallel MPI-processes    *
           *              working on a common directory               *
           ************************************************************
------------------------------------------------------------------------------
                         ORCA SCF GRADIENT CALCULATION
------------------------------------------------------------------------------

Gradient of the Kohn-Sham DFT energy:
Kohn-Sham wavefunction type      ... RKS
Hartree-Fock exchange scaling    ...    0.000
Number of operators              ...    1
Number of atoms                  ...    9
Basis set dimensions             ...  276
Integral neglect threshold       ... 2.5e-11
Integral primitive cutoff        ... 2.5e-12

Nuclear repulsion gradient       ... done
One Electron Gradient            ... done
Pre-screening matrix             ... done
RI-J gradient                    ... done
Exchange-correlation gradient    ... done
Dispersion correction            ... done

------------------
CARTESIAN GRADIENT
------------------

   1   O   :   -0.011390136    0.030904072   -0.024951180
   2   H   :    0.001624863    0.012220522   -0.012794956
   3   H   :   -0.010303589    0.014390962   -0.009178523
   4   O   :   -0.007221364   -0.018445666   -0.016245442
   5   H   :   -0.012802135   -0.014334863   -0.017765677
   6   H   :   -0.012822759   -0.002692182   -0.019017667
   7   O   :    0.014255189    0.014373416    0.003620743
   8   H   :    0.008783754   -0.017182827    0.023849118
   9   H   :    0.023652798    0.005871660    0.016913545

Difference to translation invariance:
           :   -0.0062233783    0.0251050937   -0.0555700394

Norm of the cartesian gradient     ...    0.0808659898
RMS gradient                       ...    0.0155626670
MAX gradient                       ...    0.0309040717

-------
TIMINGS
-------

Total SCF gradient time            ...        0.709 sec

One electron gradient       ....       0.014 sec  (  2.0%)
Prescreening matrices       ....       0.030 sec  (  4.2%)
RI-J Coulomb gradient       ....       0.161 sec  ( 22.8%)
XC gradient                 ....       0.250 sec  ( 35.3%)
------------------------------------------------------------------------------
                         ORCA GEOMETRY RELAXATION STEP
------------------------------------------------------------------------------

Reading the OPT-File                    .... done
Getting information on internals        .... done
Copying old internal coords+grads       .... done
Making the new internal coordinates     .... (new redundants).... done
Validating the new internal coordinates .... (new redundants).... done
Calculating the B-matrix                .... done
Calculating the G,G- and P matrices     .... done
Transforming gradient to internals      .... done
Projecting the internal gradient        .... done
Number of atoms                         ....   9
Number of internal coordinates          ....  90
Current Energy                          ....  -229.260678473 Eh
Current gradient norm                   ....     0.080865990 Eh/bohr
Maximum allowed component of the step   ....  0.300
Current trust radius                    ....  0.300
Resetting Hessian after 50 BFGS Update Steps....
Build internal Hessian                  .... (Almloef) done
Updating Hessian with the last 5 steps  .... done
Forming the augmented Hessian           .... done
Diagonalizing the augmented Hessian     .... done
Last element of RFO vector              ....  0.208313756
Lowest eigenvalues of augmented Hessian:
 -0.043647725 -0.006839747  0.005391596  0.007139416  0.017073118
Length of the computed step             ....  4.695139058
Warning: the length of the step is outside the trust region - taking restricted step instead
The input lambda is                     ....    -0.043648
   iter:   1  x=   -0.044582  g=23503.536950 f(x)=    21.954331
   iter:   2  x=   -0.045977  g= 6981.455351 f(x)=     9.743450
   iter:   3  x=   -0.048051  g= 2080.898006 f(x)=     4.315685
   iter:   4  x=   -0.051093  g=  625.392788 f(x)=     1.902464
   iter:   5  x=   -0.055417  g=  191.734117 f(x)=     0.828951
   iter:   6  x=   -0.061116  g=   61.594607 f(x)=     0.351049
   iter:   7  x=   -0.067433  g=   21.949937 f(x)=     0.138658
   iter:   8  x=   -0.072235  g=    9.612447 f(x)=     0.046157
   iter:   9  x=   -0.073947  g=    5.856828 f(x)=     0.010029
   iter:  10  x=   -0.074098  g=    5.006328 f(x)=     0.000754
   iter:  11  x=   -0.074099  g=    4.939798 f(x)=     0.000005
   iter:  12  x=   -0.074099  g=    4.939353 f(x)=     0.000000
   iter:  13  x=   -0.074099  g=    4.939353 f(x)=     0.000000
The output lambda is                    ....    -0.074099 (13 iterations)
The final length of the internal step   ....  0.300000000
Converting the step to cartesian space:
 Initial RMS(Int)=    0.0316227766
Transforming coordinates:
 Iter   0:  RMS(Cart)=    0.0483495326 RMS(Int)=    0.0314988997
 Iter   1:  RMS(Cart)=    0.0006642141 RMS(Int)=    0.0005051830
 Iter   2:  RMS(Cart)=    0.0000266736 RMS(Int)=    0.0000164948
 Iter   3:  RMS(Cart)=    0.0000011060 RMS(Int)=    0.0000007945
 Iter   4:  RMS(Cart)=    0.0000000574 RMS(Int)=    0.0000000386
done
Storing new coordinates                 .... done

                                .--------------------.
          ----------------------|Geometry convergence|-------------------------
          Item                value                   Tolerance       Converged
          ---------------------------------------------------------------------
          Energy change      -0.0002949906            0.0000050000      NO
          RMS gradient        0.0020921758            0.0001000000      NO
          MAX gradient        0.0088299959            0.0003000000      NO
          RMS step            0.0316227766            0.0020000000      NO
          MAX step            0.1502255209            0.0040000000      NO
          ........................................................
          Max(Bonds)      0.0795      Max(Angles)    2.63
          Max(Dihed)        2.69      Max(Improp)    0.00
          ---------------------------------------------------------------------

The optimization has not yet converged - more geometry cycles are needed


    ---------------------------------------------------------------------------
                         Redundant Internal Coordinates
                            (Angstroem and degrees)

        Definition                    Value    dE/dq     Step     New-Value
    ----------------------------------------------------------------------------
     1. B(H   1,O   0)                0.9558  0.004520  0.0272    0.9830   
     2. B(H   2,O   0)                0.9502  0.002411  0.0054    0.9555   
     3. B(O   3,H   1)                2.8077 -0.005750  0.0621    2.8698   
     4. B(H   4,O   3)                0.9432  0.001291  0.0194    0.9627   
     5. B(H   5,H   1)                3.1675 -0.004975  0.0626    3.2301   
     6. B(H   5,O   3)                0.9532  0.006745 -0.0026    0.9506   
     7. B(O   6,H   5)                3.1770  0.001148 -0.0008    3.1762   
     8. B(H   7,O   0)                3.6216 -0.008830  0.0795    3.7011   
     9. B(H   7,H   5)                3.0127 -0.002618  0.0248    3.0375   
    10. B(H   7,O   6)                0.9603  0.008255 -0.0216    0.9388   
    11. B(H   7,H   1)                3.7015 -0.004492  0.0442    3.7457   
    12. B(H   8,O   6)                0.9456 -0.000262  0.0189    0.9644   
    13. A(H   1,O   0,H   2)          119.56 -0.002103    2.07    121.63   
    14. A(H   1,O   0,H   7)           87.29  0.001746   -2.36     84.92   
    15. A(H   2,O   0,H   7)          131.60 -0.000962    0.88    132.48   
    16. A(O   0,H   1,O   3)          146.09 -0.000842    1.23    147.32   
    17. A(O   3,H   1,H   5)           17.02  0.001537   -0.55     16.48   
    18. A(O   0,H   1,H   7)           77.77 -0.002607    2.14     79.91   
    19. A(O   3,H   1,H   7)           68.33  0.001773   -0.91     67.43   
    20. A(H   5,H   1,H   7)           51.31  0.000237   -0.36     50.95   
    21. A(O   0,H   1,H   5)          129.07 -0.002378    1.78    130.85   
    22. A(H   1,O   3,H   4)          107.52  0.000454   -1.43    106.08   
    23. A(H   1,O   3,H   5)          103.41 -0.001863    0.54    103.95   
    24. A(H   4,O   3,H   5)          123.43 -0.000354    2.63    126.07   
    25. A(H   1,H   5,O   3)           59.57  0.000326    0.01     59.58   
    26. A(H   1,H   5,H   7)           73.54  0.000024   -0.19     73.35   
    27. A(O   3,H   5,H   7)          133.11  0.000348   -0.19    132.92   
    28. A(H   1,H   5,O   6)           91.12  0.001401   -0.67     90.45   
    29. A(O   6,H   5,H   7)           17.59  0.001379   -0.48     17.12   
    30. A(O   3,H   5,O   6)          150.69  0.001731   -0.67    150.02   
    31. A(H   7,O   6,H   8)          130.74  0.001599   -1.12    129.62   
    32. A(H   5,O   6,H   8)          128.68  0.000266   -2.01    126.67   
    33. A(H   5,O   6,H   7)           71.47 -0.001972    1.51     72.98   
    34. A(H   1,H   7,H   5)           55.15 -0.000261    0.55     55.70   
    35. A(O   0,H   7,H   5)           70.10  0.000599    0.77     70.87   
    36. A(O   0,H   7,O   6)          160.89  0.001153   -0.26    160.63   
    37. A(H   5,H   7,O   6)           90.94  0.000593   -1.03     89.90   
    38. A(O   0,H   7,H   1)           14.95  0.000862    0.22     15.17   
    39. A(H   1,H   7,O   6)          146.03  0.000327   -0.49    145.54   
    40. D(O   3,H   1,O   0,H   7)     -1.16 -0.000630    0.56     -0.60   
    41. D(H   7,H   1,O   0,H   2)   -137.50  0.001004   -0.55   -138.05   
    42. D(H   5,H   1,O   0,H   7)     -0.79 -0.000509    0.40     -0.39   
    43. D(H   5,H   1,O   0,H   2)   -138.28  0.000495   -0.15   -138.43   
    44. D(O   3,H   1,O   0,H   2)   -138.66  0.000374    0.01   -138.65   
    45. D(H   5,O   3,H   1,O   0)      1.00  0.000265   -0.41      0.59   
    46. D(H   4,O   3,H   1,O   0)    133.00 -0.001080    2.12    135.13   
    47. D(H   4,O   3,H   1,H   5)    132.01 -0.001345    2.53    134.53   
    48. D(H   5,O   3,H   1,H   7)     -0.23 -0.000370    0.16     -0.06   
    49. D(H   4,O   3,H   1,H   7)    131.78 -0.001715    2.69    134.47   
    50. D(O   6,H   5,H   1,H   7)     -0.65 -0.000079   -0.01     -0.67   
    51. D(O   6,H   5,H   1,O   0)      0.33  0.000546   -0.51     -0.17   
    52. D(O   3,H   5,H   1,H   7)    179.73 -0.000443    0.20    179.93   
    53. D(O   6,H   5,H   1,O   3)    179.62  0.000364   -0.21    179.41   
    54. D(O   6,H   5,O   3,H   1)     -0.78  0.000701   -0.29     -1.07   
    55. D(H   7,H   5,O   3,H   4)   -121.52  0.001925   -0.46   -121.99   
    56. D(O   6,H   5,O   3,H   4)   -122.66  0.002042   -0.52   -123.19   
    57. D(H   1,H   5,O   3,H   4)   -121.88  0.001341   -0.23   -122.11   
    58. D(O   3,H   5,H   1,O   0)   -179.28  0.000182   -0.30   -179.58   
    59. D(H   7,H   5,O   3,H   1)      0.36  0.000584   -0.23      0.12   
    60. D(H   7,H   5,H   1,O   3)   -179.73  0.000443   -0.20   -179.93   
    61. D(H   7,H   5,H   1,O   0)      0.99  0.000625   -0.49      0.49   
    62. D(H   8,O   6,H   5,H   7)   -127.83 -0.000640    1.00   -126.83   
    63. D(H   8,O   6,H   5,H   1)   -125.76 -0.000545    1.10   -124.66   
    64. D(H   7,O   6,H   5,H   1)      2.08  0.000094    0.10      2.17   
    65. D(H   8,O   6,H   5,O   3)   -125.08 -0.001147    1.29   -123.79   
    66. D(H   7,O   6,H   5,O   3)      2.75 -0.000508    0.29      3.04   
    67. D(H   5,H   7,O   0,H   1)      0.68  0.000458   -0.37      0.32   
    68. D(H   1,H   7,O   0,H   2)    128.20 -0.001822    1.20    129.40   
    69. D(O   6,H   7,O   0,H   2)    136.17 -0.000159    0.71    136.87   
    70. D(O   6,H   7,O   0,H   1)      7.97  0.001663   -0.50      7.47   
    71. D(H   5,H   7,O   6,H   8)    125.53 -0.000935   -1.51    124.03   
    72. D(H   1,H   7,O   6,H   5)     -3.18 -0.000160   -0.12     -3.30   
    73. D(H   1,H   7,O   6,H   8)    122.35 -0.001095   -1.63    120.72   
    74. D(O   0,H   7,O   6,H   5)     -6.85 -0.001159    0.09     -6.76   
    75. D(H   1,H   7,H   5,O   6)    177.84 -0.000097   -0.10    177.73   
    76. D(H   1,H   7,H   5,O   3)     -0.32 -0.000526    0.16     -0.16   
    77. D(O   0,H   7,H   5,O   6)    177.62 -0.000254    0.01    177.63   
    78. D(O   0,H   7,H   5,H   1)     -0.21 -0.000157    0.12     -0.10   
    79. D(O   0,H   7,H   5,O   3)     -0.53 -0.000683    0.28     -0.26   
    80. D(O   6,H   7,H   5,H   1)   -177.84  0.000097    0.10   -177.73   
    81. D(O   6,H   7,H   5,O   3)   -178.16 -0.000429    0.27   -177.89   
    82. D(H   5,H   7,H   1,O   3)      0.09  0.000146   -0.07      0.02   
    83. D(H   5,H   7,H   1,O   0)   -179.22  0.000531   -0.43   -179.65   
    84. D(O   0,H   7,H   1,H   5)    179.22 -0.000531    0.43    179.65   
    85. D(O   0,H   7,O   6,H   8)    118.69 -0.002095   -1.41    117.27   
    86. D(O   0,H   7,H   1,O   3)    179.30 -0.000385    0.37    179.67   
    87. D(O   6,H   7,H   1,H   5)      3.87  0.000206    0.14      4.01   
    88. D(O   6,H   7,H   1,O   3)      3.96  0.000352    0.07      4.03   
    89. D(O   6,H   7,H   1,O   0)   -175.34  0.000737   -0.30   -175.64   
    90. D(H   5,H   7,O   0,H   2)    128.88 -0.001364    0.84    129.72   
    ----------------------------------------------------------------------------




    ----------------------------------------------------------------------------
                                   ERROR !!!
       The optimization did not converge but reached the maximum 
       number of optimization cycles.
       As a subsequent Frequencies calculation has been requested
       ORCA will abort at this point of the run.
       Please restart the calculation with the lowest energy geometry and/or
       a larger maxiter for the geometry optimization.
    ----------------------------------------------------------------------------


[file orca_main/run.cpp, line 10680]: ORCA finished with error return - aborting the run
[file orca_main/run.cpp, line 10680]: ORCA finished with error return - aborting the run
