
                                 *****************
                                 * O   R   C   A *
                                 *****************

           --- An Ab Initio, DFT and Semiempirical electronic structure package ---

                  #######################################################
                  #                        -***-                        #
                  #          Department of theory and spectroscopy      #
                  #               Directorship: Frank Neese             #
                  #        Max Planck Institute fuer Kohlenforschung    #
                  #                Kaiser Wilhelm Platz 1               #
                  #                 D-45470 Muelheim/Ruhr               #
                  #                      Germany                        #
                  #                                                     #
                  #                  All rights reserved                #
                  #                        -***-                        #
                  #######################################################


                         Program Version 4.2.0 -  RELEASE  -


 With contributions from (in alphabetic order):
   Daniel Aravena         : Magnetic Suceptibility
   Michael Atanasov       : Ab Initio Ligand Field Theory (pilot matlab implementation)
   Alexander A. Auer      : GIAO ZORA, VPT2
   Ute Becker             : Parallelization
   Giovanni Bistoni       : ED, misc. LED, open-shell LED, HFLED
   Martin Brehm           : Molecular dynamics
   Dmytro Bykov           : SCF Hessian
   Vijay G. Chilkuri      : MRCI spin determinant printing, contributions to CSF-ICE
   Dipayan Datta          : RHF DLPNO-CCSD density
   Achintya Kumar Dutta   : EOM-CC, STEOM-CC
   Dmitry Ganyushin       : Spin-Orbit,Spin-Spin,Magnetic field MRCI
   Miquel Garcia          : C-PCM Hessian, Gaussian charge scheme
   Yang Guo               : DLPNO-NEVPT2, CIM, IAO-localization
   Andreas Hansen         : Spin unrestricted coupled pair/coupled cluster methods
   Benjamin Helmich-Paris : CASSCF linear response (MC-RPA)
   Lee Huntington         : MR-EOM, pCC
   Robert Izsak           : Overlap fitted RIJCOSX, COSX-SCS-MP3, EOM
   Christian Kollmar      : KDIIS, OOCD, Brueckner-CCSD(T), CCSD density
   Simone Kossmann        : Meta GGA functionals, TD-DFT gradient, OOMP2, MP2 Hessian
   Martin Krupicka        : AUTO-CI
   Lucas Lang             : DCDCAS
   Dagmar Lenk            : GEPOL surface, SMD
   Dimitrios Liakos       : Extrapolation schemes; Compound Job, initial MDCI parallelization
   Dimitrios Manganas     : Further ROCIS development; embedding schemes
   Dimitrios Pantazis     : SARC Basis sets
   Taras Petrenko         : DFT Hessian,TD-DFT gradient, ASA, ECA, R-Raman, ABS, FL, XAS/XES, NRVS
   Peter Pinski           : DLPNO-MP2, DLPNO-MP2 Gradient
   Christoph Reimann      : Effective Core Potentials
   Marius Retegan         : Local ZFS, SOC
   Christoph Riplinger    : Optimizer, TS searches, QM/MM, DLPNO-CCSD(T), (RO)-DLPNO pert. Triples
   Tobias Risthaus        : Range-separated hybrids, TD-DFT gradient, RPA, STAB
   Michael Roemelt        : Original ROCIS implementation
   Masaaki Saitow         : Open-shell DLPNO-CCSD energy and density
   Barbara Sandhoefer     : DKH picture change effects
   Avijit Sen             : IP-ROCIS
   Kantharuban Sivalingam : CASSCF convergence, NEVPT2, FIC-MRCI
   Bernardo de Souza      : ESD, SOC TD-DFT
   Georgi Stoychev        : AutoAux, RI-MP2 NMR
   Willem Van den Heuvel  : Paramagnetic NMR
   Boris Wezisla          : Elementary symmetry handling
   Frank Wennmohs         : Technical directorship


 We gratefully acknowledge several colleagues who have allowed us to
 interface, adapt or use parts of their codes:
   Stefan Grimme, W. Hujo, H. Kruse,             : VdW corrections, initial TS optimization,
                  C. Bannwarth                     DFT functionals, gCP, sTDA/sTD-DF
   Ed Valeev, F. Pavosevic, A. Kumar             : LibInt (2-el integral package), F12 methods
   Garnet Chan, S. Sharma, J. Yang, R. Olivares  : DMRG
   Ulf Ekstrom                                   : XCFun DFT Library
   Mihaly Kallay                                 : mrcc  (arbitrary order and MRCC methods)
   Andreas Klamt, Michael Diedenhofen            : otool_cosmo (COSMO solvation model)
   Jiri Pittner, Ondrej Demel                    : Mk-CCSD
   Frank Weinhold                                : gennbo (NPA and NBO analysis)
   Christopher J. Cramer and Donald G. Truhlar   : smd solvation model
   Lars Goerigk                                  : TD-DFT with DH, B97 family of functionals
   V. Asgeirsson, H. Jonsson                     : NEB implementation
   FAccTs GmbH                                   : IRC, NEB, NEB-TS, Multilevel, MM, QM/MM, CI optimization
   S Lehtola, MJT Oliveira, MAL Marques          : LibXC Library


 Your calculation uses the libint2 library for the computation of 2-el integrals
 For citations please refer to: http://libint.valeyev.net

 Your ORCA version has been built with support for libXC version: 4.2.3
 For citations please refer to: https://tddft.org/programs/libxc/

 This ORCA versions uses:
   CBLAS   interface :  Fast vector & matrix operations
   LAPACKE interface :  Fast linear algebra routines
   SCALAPACK package :  Parallel linear algebra routines


Your calculation utilizes the atom-pairwise dispersion correction
with the Becke-Johnson damping scheme (D3BJ)
Cite in your paper:
S.Grimme, S.Ehrlich, L.Goerigk, J Comput Chem, (2011), 32, 1456–1465 
S.Grimme, J.Antony, S.Ehrlich and H.Krieg, J.Chem.Phys., 132, (2010), 154104 
   

----- Orbital basis set information -----
Your calculation utilizes the basis: aug-cc-pV(T+d)Z 
             Al - Ar: T.H. Dunning, Jr., K. A. Peterson and A. K. Wilson, J. Chem. Phys.
                      114, 9244 (2001)

----- AuxJ basis set information -----
Your calculation utilizes the auxiliary basis: def2/J
   F. Weigend, Phys. Chem. Chem. Phys. 8, 1057 (2006).

================================================================================
                                        WARNINGS
                       Please study these warnings very carefully!
================================================================================


WARNING: Geometry Optimization
  ===> : Switching off AutoStart
         For restart on a previous wavefunction, please use MOREAD

WARNING: The SCAN functional is very grid-sensitive!
         Use at least GRID5 and a higher intacc

INFO   : the flag for use of LIBINT has been found!

================================================================================
                                       INPUT FILE
================================================================================
NAME = 04_H2O_4.in
|  1> #
|  2> # 04_H2O_4 scanfunc/aug-cc-pvt(+d)z
|  3> #
|  4> ! scanfunc d3bj aug-cc-pvt(+d)z def2/j grid4 nofinalgrid opt xyzfile numfreq
|  5> 
|  6> *xyz 0 1
|  7> O	1.372659		-1.372658	0.015734
|  8> H	0.406261		-1.511316	-0.008945
|  9> H	1.683553		-1.872433	0.772059
| 10> O	-1.372658		-1.372658	-0.015734
| 11> H	-1.511316		-0.406261	0.008945
| 12> H	-1.872433		-1.683553	-0.772059
| 13> O	-1.372658		1.372659	0.015734
| 14> H	-0.406261		1.511317	-0.008945
| 15> H	-1.683553		1.872433	0.772059
| 16> O	1.372659		1.372659	-0.015734
| 17> H	1.511317		0.406261	0.008945
| 18> H	1.872433		1.683553	-0.772059
| 19> *
| 20> 
| 21> %maxcore 5000
| 22> 
| 23> %pal
| 24> nprocs 24
| 25> end
| 26> 
| 27> 
| 28>                          ****END OF INPUT****
================================================================================

                       *****************************
                       * Geometry Optimization Run *
                       *****************************

Geometry optimization settings:
Update method            Update   .... BFGS
Choice of coordinates    CoordSys .... Z-matrix Internals
Initial Hessian          InHess   .... Almoef's Model

Convergence Tolerances:
Energy Change            TolE     ....  5.0000e-06 Eh
Max. Gradient            TolMAXG  ....  3.0000e-04 Eh/bohr
RMS Gradient             TolRMSG  ....  1.0000e-04 Eh/bohr
Max. Displacement        TolMAXD  ....  4.0000e-03 bohr
RMS Displacement         TolRMSD  ....  2.0000e-03 bohr
Strict Convergence                ....  False
------------------------------------------------------------------------------
                        ORCA OPTIMIZATION COORDINATE SETUP
------------------------------------------------------------------------------

The optimization will be done in new redundant internal coordinates
Making redundant internal coordinates   ...  (new redundants) done
Evaluating the initial hessian          ...  (Almloef) done
Evaluating the coordinates              ...  done
Calculating the B-matrix                .... done
Calculating the G-matrix                .... done
Diagonalizing the G-matrix              .... done
The first mode is                       ....   94
The number of degrees of freedom        ....   30

    -----------------------------------------------------------------
                    Redundant Internal Coordinates


    -----------------------------------------------------------------
         Definition                    Initial Value    Approx d2E/dq
    -----------------------------------------------------------------
      1. B(H   1,O   0)                  0.9766         0.489184   
      2. B(H   2,O   0)                  0.9584         0.523094   
      3. B(O   3,H   1)                  1.7843         0.025165   
      4. B(H   4,H   1)                  2.2133         0.001113   
      5. B(H   4,O   3)                  0.9766         0.489186   
      6. B(H   5,O   3)                  0.9584         0.523094   
      7. B(O   6,H   4)                  1.7843         0.025165   
      8. B(H   7,O   6)                  0.9766         0.489186   
      9. B(H   7,H   4)                  2.2133         0.001113   
     10. B(H   8,O   6)                  0.9584         0.523095   
     11. B(O   9,H   7)                  1.7843         0.025165   
     12. B(H  10,O   9)                  0.9766         0.489184   
     13. B(H  10,H   1)                  2.2133         0.001113   
     14. B(H  10,O   0)                  1.7843         0.025165   
     15. B(H  10,H   7)                  2.2133         0.001113   
     16. B(H  11,O   9)                  0.9584         0.523095   
     17. A(H   1,O   0,H  10)          102.6121         0.204712   
     18. A(H   2,O   0,H  10)          119.8481         0.206481   
     19. A(H   1,O   0,H   2)          105.4806         0.318954   
     20. A(O   0,H   1,O   3)          167.3198         0.204712   
     21. A(O   0,H   1,H  10)           51.8821         0.135215   
     22. A(O   0,H   1,H   4)          141.8365         0.135215   
     23. A(H   4,H   1,H  10)           89.9963         0.098430   
     24. A(O   3,H   1,H   4)           25.5058         0.112611   
     25. A(O   3,H   1,H  10)          115.4978         0.112611   
     26. A(H   1,O   3,H   4)          102.6121         0.204712   
     27. A(H   4,O   3,H   5)          105.4807         0.318954   
     28. A(H   1,O   3,H   5)          119.8481         0.206481   
     29. A(O   3,H   4,H   7)          141.8365         0.135215   
     30. A(O   6,H   4,H   7)           25.5058         0.112611   
     31. A(H   1,H   4,H   7)           89.9963         0.098430   
     32. A(H   1,H   4,O   6)          115.4978         0.112611   
     33. A(O   3,H   4,O   6)          167.3198         0.204712   
     34. A(H   1,H   4,O   3)           51.8821         0.135215   
     35. A(H   7,O   6,H   8)          105.4807         0.318954   
     36. A(H   4,O   6,H   8)          119.8480         0.206481   
     37. A(H   4,O   6,H   7)          102.6121         0.204712   
     38. A(H   4,H   7,O   9)          115.4978         0.112611   
     39. A(O   6,H   7,O   9)          167.3198         0.204712   
     40. A(H   4,H   7,O   6)           51.8821         0.135215   
     41. A(O   9,H   7,H  10)           25.5058         0.112611   
     42. A(H   4,H   7,H  10)           89.9962         0.098430   
     43. A(O   6,H   7,H  10)          141.8365         0.135215   
     44. A(H   7,O   9,H  11)          119.8480         0.206481   
     45. A(H   7,O   9,H  10)          102.6121         0.204712   
     46. A(H  10,O   9,H  11)          105.4807         0.318954   
     47. A(O   0,H  10,O   9)          167.3198         0.204712   
     48. A(O   0,H  10,H   1)           25.5058         0.112611   
     49. A(H   1,H  10,O   9)          141.8365         0.135215   
     50. A(H   1,H  10,H   7)           89.9962         0.098430   
     51. A(O   0,H  10,H   7)          115.4978         0.112611   
     52. A(H   7,H  10,O   9)           51.8821         0.135215   
     53. D(H  10,H   1,O   0,H   2)    126.2406         0.357621   
     54. D(O   3,H   1,O   0,H   2)    120.2411         0.357621   
     55. D(H   4,H   1,O   0,H   2)    123.0995         0.357621   
     56. D(O   3,H   1,O   0,H  10)     -5.9995         0.357621   
     57. D(H   4,H   1,O   0,H  10)     -3.1411         0.357621   
     58. D(H   4,O   3,H   1,O   0)      4.1036         0.001912   
     59. D(H   4,O   3,H   1,H  10)     -1.1235         0.001912   
     60. D(H   5,O   3,H   1,H   4)    116.3425         0.001912   
     61. D(H   5,O   3,H   1,O   0)    120.4460         0.001912   
     62. D(H   5,O   3,H   1,H  10)    115.2190         0.001912   
     63. D(O   6,H   4,H   1,O   3)   -178.5435         0.001515   
     64. D(O   3,H   4,H   1,H  10)    178.9859         0.001515   
     65. D(O   6,H   4,H   1,H  10)      0.4425         0.001515   
     66. D(O   6,H   4,H   1,O   0)      2.9132         0.001515   
     67. D(H   7,H   4,O   3,H   1)      3.1411         0.357624   
     68. D(O   6,H   4,O   3,H   1)      5.9995         0.357624   
     69. D(O   6,H   4,O   3,H   5)   -120.2411         0.357624   
     70. D(H   1,H   4,O   3,H   5)   -126.2406         0.357624   
     71. D(H   7,H   4,H   1,O   3)   -178.0597         0.001515   
     72. D(H   7,H   4,H   1,H  10)      0.9262         0.001515   
     73. D(H   7,H   4,O   3,H   5)   -123.0995         0.357624   
     74. D(O   3,H   4,H   1,O   0)   -178.5433         0.001515   
     75. D(H   7,H   4,H   1,O   0)      3.3970         0.001515   
     76. D(H   8,O   6,H   4,H   1)   -115.2189         0.001912   
     77. D(H   8,O   6,H   4,H   7)   -116.3425         0.001912   
     78. D(H   8,O   6,H   4,O   3)   -120.4460         0.001912   
     79. D(H   7,O   6,H   4,H   1)      1.1235         0.001912   
     80. D(H   7,O   6,H   4,O   3)     -4.1036         0.001912   
     81. D(O   6,H   7,H   4,O   3)    178.5433         0.001515   
     82. D(O   6,H   7,H   4,H   1)   -178.9859         0.001515   
     83. D(O   9,H   7,H   4,O   3)     -2.9132         0.001515   
     84. D(H  10,H   7,O   6,H   4)     -3.1411         0.357624   
     85. D(H  10,H   7,O   6,H   8)    123.0994         0.357624   
     86. D(O   9,H   7,O   6,H   8)    120.2410         0.357624   
     87. D(H   4,H   7,O   6,H   8)    126.2405         0.357624   
     88. D(H  10,H   7,H   4,O   6)    178.0597         0.001515   
     89. D(H  10,H   7,H   4,H   1)     -0.9262         0.001515   
     90. D(O   9,H   7,O   6,H   4)     -5.9995         0.357624   
     91. D(H  10,H   7,H   4,O   3)     -3.3970         0.001515   
     92. D(O   9,H   7,H   4,O   6)    178.5435         0.001515   
     93. D(O   9,H   7,H   4,H   1)     -0.4425         0.001515   
     94. D(H  11,O   9,H   7,H  10)    116.3424         0.001912   
     95. D(H  11,O   9,H   7,H   4)    115.2189         0.001912   
     96. D(H  11,O   9,H   7,O   6)    120.4460         0.001912   
     97. D(H  10,O   9,H   7,H   4)     -1.1235         0.001912   
     98. D(H  10,O   9,H   7,O   6)      4.1036         0.001912   
     99. D(O   0,H  10,H   7,O   6)      2.9132         0.001515   
    100. D(O   9,H  10,H   7,H   4)    178.9859         0.001515   
    101. D(O   9,H  10,H   7,O   6)   -178.5433         0.001515   
    102. D(H   7,H  10,H   1,O   3)     -0.4425         0.001515   
    103. D(H   7,H  10,H   1,O   0)   -178.9859         0.001515   
    104. D(O   0,H  10,H   1,H   4)    178.0597         0.001515   
    105. D(O   0,H  10,H   1,O   3)    178.5435         0.001515   
    106. D(O   9,H  10,H   1,H   4)     -3.3970         0.001515   
    107. D(O   9,H  10,H   1,O   3)     -2.9132         0.001515   
    108. D(O   9,H  10,H   1,O   0)    178.5433         0.001515   
    109. D(H   7,H  10,O   0,H   2)   -115.2189         0.001912   
    110. D(H   7,H  10,H   1,H   4)     -0.9262         0.001515   
    111. D(H   7,H  10,O   0,H   1)      1.1235         0.001912   
    112. D(H   1,H  10,O   0,H   2)   -116.3424         0.001912   
    113. D(O   9,H  10,O   0,H   2)   -120.4460         0.001912   
    114. D(O   0,H  10,H   7,H   4)      0.4425         0.001515   
    115. D(O   9,H  10,O   0,H   1)     -4.1036         0.001912   
    116. D(H   7,H  10,O   9,H  11)   -126.2405         0.357621   
    117. D(H   1,H  10,O   9,H  11)   -123.0994         0.357621   
    118. D(O   0,H  10,O   9,H   7)      5.9995         0.357621   
    119. D(O   0,H  10,O   9,H  11)   -120.2410         0.357621   
    120. D(H   1,H  10,H   7,O   9)   -178.0597         0.001515   
    121. D(H   1,H  10,H   7,H   4)      0.9262         0.001515   
    122. D(H   1,H  10,O   9,H   7)      3.1411         0.357621   
    123. D(H   1,H  10,H   7,O   6)      3.3970         0.001515   
    124. D(O   0,H  10,H   7,O   9)   -178.5435         0.001515   
    -----------------------------------------------------------------

Number of atoms                         .... 12
Number of degrees of freedom            .... 124

         *************************************************************
         *                GEOMETRY OPTIMIZATION CYCLE   1            *
         *************************************************************
---------------------------------
CARTESIAN COORDINATES (ANGSTROEM)
---------------------------------
  O      1.372659   -1.372658    0.015734
  H      0.406261   -1.511316   -0.008945
  H      1.683553   -1.872433    0.772059
  O     -1.372658   -1.372658   -0.015734
  H     -1.511316   -0.406261    0.008945
  H     -1.872433   -1.683553   -0.772059
  O     -1.372658    1.372659    0.015734
  H     -0.406261    1.511317   -0.008945
  H     -1.683553    1.872433    0.772059
  O      1.372659    1.372659   -0.015734
  H      1.511317    0.406261    0.008945
  H      1.872433    1.683553   -0.772059

----------------------------
CARTESIAN COORDINATES (A.U.)
----------------------------
  NO LB      ZA    FRAG     MASS         X           Y           Z
   0 O     8.0000    0    15.999    2.593950   -2.593948    0.029733
   1 H     1.0000    0     1.008    0.767722   -2.855973   -0.016904
   2 H     1.0000    0     1.008    3.181454   -3.538386    1.458980
   3 O     8.0000    0    15.999   -2.593948   -2.593948   -0.029733
   4 H     1.0000    0     1.008   -2.855973   -0.767722    0.016904
   5 H     1.0000    0     1.008   -3.538386   -3.181454   -1.458980
   6 O     8.0000    0    15.999   -2.593948    2.593950    0.029733
   7 H     1.0000    0     1.008   -0.767722    2.855975   -0.016904
   8 H     1.0000    0     1.008   -3.181454    3.538386    1.458980
   9 O     8.0000    0    15.999    2.593950    2.593950   -0.029733
  10 H     1.0000    0     1.008    2.855975    0.767722    0.016904
  11 H     1.0000    0     1.008    3.538386    3.181454   -1.458980

--------------------------------
INTERNAL COORDINATES (ANGSTROEM)
--------------------------------
 O      0   0   0     0.000000000000     0.00000000     0.00000000
 H      1   0   0     0.976606465476     0.00000000     0.00000000
 H      1   2   0     0.958361954319   105.48063347     0.00000000
 O      2   1   3     1.784327587649   167.31984179   120.24107791
 H      4   2   1     0.976605475929   102.61211353     4.10356285
 H      4   2   1     0.958362278721   119.84805779   120.44602620
 O      5   4   2     1.784328584618   167.31983583     5.99948704
 H      7   5   4     0.976605475929   102.61211104   355.89643243
 H      7   5   4     0.958361757233   119.84800790   239.55397543
 O      8   7   5     1.784328584618   167.31983583   354.00051315
 H     10   8   7     0.976606465476   102.61210273     4.10356916
 H     10   8   7     0.958361432831   119.84802438   120.44596220

---------------------------
INTERNAL COORDINATES (A.U.)
---------------------------
 O      0   0   0     0.000000000000     0.00000000     0.00000000
 H      1   0   0     1.845518760366     0.00000000     0.00000000
 H      1   2   0     1.811041630832   105.48063347     0.00000000
 O      2   1   3     3.371890473857   167.31984179   120.24107791
 H      4   2   1     1.845516890393   102.61211353     4.10356285
 H      4   2   1     1.811042243863   119.84805779   120.44602620
 O      5   4   2     3.371892357855   167.31983583     5.99948704
 H      7   5   4     1.845516890393   102.61211104   355.89643243
 H      7   5   4     1.811041258393   119.84800790   239.55397543
 O      8   7   5     3.371892357855   167.31983583   354.00051315
 H     10   8   7     1.845518760366   102.61210273     4.10356916
 H     10   8   7     1.811040645362   119.84802438   120.44596220

---------------------
BASIS SET INFORMATION
---------------------
There are 2 groups of distinct atoms

 Group   1 Type O   : 19s6p3d2f contracted to 5s4p3d2f pattern {88111/3111/111/11}
 Group   2 Type H   : 6s3p2d contracted to 4s3p2d pattern {3111/111/11}

Atom   0O    basis set group =>   1
Atom   1H    basis set group =>   2
Atom   2H    basis set group =>   2
Atom   3O    basis set group =>   1
Atom   4H    basis set group =>   2
Atom   5H    basis set group =>   2
Atom   6O    basis set group =>   1
Atom   7H    basis set group =>   2
Atom   8H    basis set group =>   2
Atom   9O    basis set group =>   1
Atom  10H    basis set group =>   2
Atom  11H    basis set group =>   2
---------------------------------
AUXILIARY/J BASIS SET INFORMATION
---------------------------------
There are 2 groups of distinct atoms

 Group   1 Type O   : 12s5p4d2f1g contracted to 6s4p3d1f1g pattern {711111/2111/211/2/1}
 Group   2 Type H   : 5s2p1d contracted to 3s1p1d pattern {311/2/1}

Atom   0O    basis set group =>   1
Atom   1H    basis set group =>   2
Atom   2H    basis set group =>   2
Atom   3O    basis set group =>   1
Atom   4H    basis set group =>   2
Atom   5H    basis set group =>   2
Atom   6O    basis set group =>   1
Atom   7H    basis set group =>   2
Atom   8H    basis set group =>   2
Atom   9O    basis set group =>   1
Atom  10H    basis set group =>   2
Atom  11H    basis set group =>   2


           ************************************************************
           *        Program running with 24 parallel MPI-processes    *
           *              working on a common directory               *
           ************************************************************
------------------------------------------------------------------------------
                           ORCA GTO INTEGRAL CALCULATION
                           -- RI-GTO INTEGRALS CHOSEN --
------------------------------------------------------------------------------

                         BASIS SET STATISTICS AND STARTUP INFO

Gaussian basis set:
 # of primitive gaussian shells          ...  208
 # of primitive gaussian functions       ...  464
 # of contracted shells                  ...  128
 # of contracted basis functions         ...  368
 Highest angular momentum                ...    3
 Maximum contraction depth               ...    8
Auxiliary gaussian basis set:
 # of primitive gaussian shells          ...  160
 # of primitive gaussian functions       ...  408
 # of contracted shells                  ...  100
 # of contracted aux-basis functions     ...  284
 Highest angular momentum                ...    4
 Maximum contraction depth               ...    7
Ratio of auxiliary to basis functions    ...  0.77
Integral package used                  ... LIBINT
 One Electron integrals                  ... done
 Ordering auxiliary basis shells         ... done
 Integral threshhold             Thresh  ...  2.500e-11
 Primitive cut-off               TCut    ...  2.500e-12
 Pre-screening matrix                    ... done
 Shell pair data                         ... 
 Ordering of the shell pairs             ... done (   0.001 sec) 8012 of 8256 pairs
 Determination of significant pairs      ... done (   0.000 sec)
 Creation of shell pair data             ... done (   0.001 sec)
 Storage of shell pair data              ... done (   0.013 sec)
 Shell pair data done in (   0.015 sec)
 Computing two index integrals           ... done
 Cholesky decomposition of the V-matrix  ... done


Timings:
 Total evaluation time                   ...   0.316 sec (  0.005 min)
 One electron matrix time                ...   0.064 sec (  0.001 min) = 20.2%
 Schwartz matrix evaluation time         ...   0.135 sec (  0.002 min) = 42.6%
 Two index repulsion integral time       ...   0.002 sec (  0.000 min) =  0.5%
 Cholesky decomposition of V             ...   0.077 sec (  0.001 min) = 24.3%
 Three index repulsion integral time     ...   0.000 sec (  0.000 min) =  0.0%



           ************************************************************
           *        Program running with 24 parallel MPI-processes    *
           *              working on a common directory               *
           ************************************************************
-------------------------------------------------------------------------------
                                 ORCA SCF
-------------------------------------------------------------------------------

------------
SCF SETTINGS
------------
Hamiltonian:
 Density Functional     Method          .... DFT(GTOs)
 Exchange Functional    Exchange        .... SCAN
 Correlation Functional Correlation     .... SCAN
 Gradients option       PostSCFGGA      .... off
   Density functional embedding theory  .... OFF
   NL short-range parameter             ....  6.400000
 RI-approximation to the Coulomb term is turned on
   Number of auxiliary basis functions  .... 284


General Settings:
 Integral files         IntName         .... 04_H2O_4
 Hartree-Fock type      HFTyp           .... RHF
 Total Charge           Charge          ....    0
 Multiplicity           Mult            ....    1
 Number of Electrons    NEL             ....   40
 Basis Dimension        Dim             ....  368
 Nuclear Repulsion      ENuc            ....    141.3596395251 Eh

Convergence Acceleration:
 DIIS                   CNVDIIS         .... on
   Start iteration      DIISMaxIt       ....    12
   Startup error        DIISStart       ....  0.200000
   # of expansion vecs  DIISMaxEq       ....     5
   Bias factor          DIISBfac        ....   1.050
   Max. coefficient     DIISMaxC        ....  10.000
 Newton-Raphson         CNVNR           .... off
 SOSCF                  CNVSOSCF        .... on
   Start iteration      SOSCFMaxIt      ....   150
   Startup grad/error   SOSCFStart      ....  0.003300
 Level Shifting         CNVShift        .... on
   Level shift para.    LevelShift      ....    0.2500
   Turn off err/grad.   ShiftErr        ....    0.0010
 Zerner damping         CNVZerner       .... off
 Static damping         CNVDamp         .... on
   Fraction old density DampFac         ....    0.7000
   Max. Damping (<1)    DampMax         ....    0.9800
   Min. Damping (>=0)   DampMin         ....    0.0000
   Turn off err/grad.   DampErr         ....    0.1000
 Fernandez-Rico         CNVRico         .... off

SCF Procedure:
 Maximum # iterations   MaxIter         ....   125
 SCF integral mode      SCFMode         .... Direct
   Integral package                     .... LIBINT
 Reset frequency        DirectResetFreq ....    20
 Integral Threshold     Thresh          ....  2.500e-11 Eh
 Primitive CutOff       TCut            ....  2.500e-12 Eh

Convergence Tolerance:
 Convergence Check Mode ConvCheckMode   .... Total+1el-Energy
 Convergence forced     ConvForced      .... 0
 Energy Change          TolE            ....  1.000e-08 Eh
 1-El. energy change                    ....  1.000e-05 Eh
 Orbital Gradient       TolG            ....  1.000e-05
 Orbital Rotation angle TolX            ....  1.000e-05
 DIIS Error             TolErr          ....  5.000e-07


Diagonalization of the overlap matrix:
Smallest eigenvalue                        ... 1.138e-04
Time for diagonalization                   ...    0.037 sec
Threshold for overlap eigenvalues          ... 1.000e-08
Number of eigenvalues below threshold      ... 0
Time for construction of square roots      ...    0.016 sec
Total time needed                          ...    0.054 sec

-------------------
DFT GRID GENERATION
-------------------

General Integration Accuracy     IntAcc      ...  4.670
Radial Grid Type                 RadialGrid  ... Gauss-Chebyshev
Angular Grid (max. acc.)         AngularGrid ... Lebedev-302
Angular grid pruning method      GridPruning ... 3 (G Style)
Weight generation scheme         WeightScheme... Becke
Basis function cutoff            BFCut       ...    1.0000e-11
Integration weight cutoff        WCut        ...    1.0000e-14
Grids for H and He will be reduced by one unit

# of grid points (after initial pruning)     ...  52000 (   0.0 sec)
# of grid points (after weights+screening)   ...  49024 (   0.0 sec)
nearest neighbour list constructed           ...    0.0 sec
Grid point re-assignment to atoms done       ...    0.0 sec
Grid point division into batches done        ...    0.1 sec
Reduced shell lists constructed in    0.2 sec

Total number of grid points                  ...    49024
Total number of batches                      ...      772
Average number of points per batch           ...       63
Average number of grid points per atom       ...     4085
Average number of shells per batch           ...    89.65 (70.04%)
Average number of basis functions per batch  ...   249.24 (67.73%)
Average number of large shells per batch     ...    73.50 (81.99%)
Average number of large basis fcns per batch ...   199.44 (80.02%)
Maximum spatial batch extension              ...  14.21, 10.44, 11.53 au
Average spatial batch extension              ...   0.12,  0.10,  0.12 au

Time for grid setup =    0.211 sec

------------------------------
INITIAL GUESS: MODEL POTENTIAL
------------------------------
Loading Hartree-Fock densities                     ... done
Calculating cut-offs                               ... done
Setting up the integral package                    ... done
Initializing the effective Hamiltonian             ... done
Starting the Coulomb interaction                   ... done (   0.0 sec)
Reading the grid                                   ... done
Mapping shells                                     ... done
Starting the XC term evaluation                    ... done (   0.1 sec)
  promolecular density results
     # of electrons  =     39.996233363
     EX              =    -38.606190352
     EC              =     -0.642239907
     EX+EC           =    -39.248430259
Transforming the Hamiltonian                       ... done (   0.0 sec)
Diagonalizing the Hamiltonian                      ... done (   0.0 sec)
Back transforming the eigenvectors                 ... done (   0.0 sec)
Now organizing SCF variables                       ... done
                      ------------------
                      INITIAL GUESS DONE (   0.4 sec)
                      ------------------
--------------
SCF ITERATIONS
--------------
ITER       Energy         Delta-E        Max-DP      RMS-DP      [F,P]     Damp
               ***  Starting incremental Fock matrix formation  ***
  0   -304.9104925905   0.000000000000 0.06890957  0.00129160  0.5510206 0.7000
  1   -305.3364814621  -0.425988871617 0.02971478  0.00063588  0.2227111 0.7000
                               ***Turning on DIIS***
  2   -305.4643708941  -0.127889432049 0.03978954  0.00077512  0.0550800 0.0000
  3   -305.7066278090  -0.242256914843 0.00537605  0.00013060  0.1184905 0.7000
  4   -305.7237232391  -0.017095430162 0.01756421  0.00042256  0.0900653 0.0000
                      *** Initiating the SOSCF procedure ***
                           *** Shutting down DIIS ***
                      *** Re-Reading the Fockian *** 
                      *** Removing any level shift *** 
ITER      Energy       Delta-E        Grad      Rot      Max-DP    RMS-DP
  5   -305.75338434  -0.0296610980  0.001560  0.001560  0.003864  0.000073
               *** Restarting incremental Fock matrix formation ***
  6   -305.75351245  -0.0001281086  0.000595  0.001647  0.003005  0.000061
  7   -305.75353130  -0.0000188496  0.000188  0.000257  0.000336  0.000008
  8   -305.75353259  -0.0000012936  0.000068  0.000153  0.000339  0.000006
  9   -305.75353289  -0.0000002991  0.000003  0.000006  0.000013  0.000000
 10   -305.75353289  -0.0000000000  0.000005  0.000003  0.000005  0.000000
                  ***Gradient check signals convergence***
              ***Rediagonalizing the Fockian in SOSCF/NRSCF***

               *****************************************************
               *                     SUCCESS                       *
               *           SCF CONVERGED AFTER  11 CYCLES          *
               *****************************************************


----------------
TOTAL SCF ENERGY
----------------

Total Energy       :         -305.75353289 Eh           -8319.97661 eV

Components:
Nuclear Repulsion  :          141.35963953 Eh            3846.59135 eV
Electronic Energy  :         -447.11317241 Eh          -12166.56796 eV
One Electron Energy:         -701.52998301 Eh          -19089.60133 eV
Two Electron Energy:          254.41681059 Eh            6923.03338 eV

Virial components:
Potential Energy   :         -609.88787832 Eh          -16595.89289 eV
Kinetic Energy     :          304.13434543 Eh            8275.91628 eV
Virial Ratio       :            2.00532392


DFT components:
N(Alpha)           :       20.000070600000 electrons
N(Beta)            :       20.000070600000 electrons
N(Total)           :       40.000141199999 electrons
E(X)               :      -35.942966151555 Eh       
E(C)               :       -1.291424633184 Eh       
E(XC)              :      -37.234390784739 Eh       
DFET-embed. en.    :        0.000000000000 Eh       

---------------
SCF CONVERGENCE
---------------

  Last Energy change         ...   -3.3810e-10  Tolerance :   1.0000e-08
  Last MAX-Density change    ...    1.7728e-06  Tolerance :   1.0000e-07
  Last RMS-Density change    ...    3.6571e-08  Tolerance :   5.0000e-09
  Last Orbital Gradient      ...    8.0411e-07  Tolerance :   1.0000e-05
  Last Orbital Rotation      ...    8.8135e-07  Tolerance :   1.0000e-05

             **** THE GBW FILE WAS UPDATED (04_H2O_4.gbw) ****
             **** DENSITY FILE WAS UPDATED (04_H2O_4.scfp) ****
             **** ENERGY FILE WAS UPDATED (04_H2O_4.en.tmp) ****
             **** THE GBW FILE WAS UPDATED (04_H2O_4.gbw) ****
             **** DENSITY FILE WAS UPDATED (04_H2O_4.scfp) ****
----------------
ORBITAL ENERGIES
----------------

  NO   OCC          E(Eh)            E(eV) 
   0   2.0000     -18.958740      -515.8936 
   1   2.0000     -18.958737      -515.8935 
   2   2.0000     -18.958737      -515.8935 
   3   2.0000     -18.958733      -515.8934 
   4   2.0000      -0.989863       -26.9355 
   5   2.0000      -0.977364       -26.5954 
   6   2.0000      -0.977364       -26.5954 
   7   2.0000      -0.965176       -26.2638 
   8   2.0000      -0.508917       -13.8483 
   9   2.0000      -0.497144       -13.5280 
  10   2.0000      -0.497144       -13.5280 
  11   2.0000      -0.488852       -13.3023 
  12   2.0000      -0.394145       -10.7252 
  13   2.0000      -0.362198        -9.8559 
  14   2.0000      -0.362198        -9.8559 
  15   2.0000      -0.329803        -8.9744 
  16   2.0000      -0.286152        -7.7866 
  17   2.0000      -0.282425        -7.6852 
  18   2.0000      -0.282425        -7.6852 
  19   2.0000      -0.281835        -7.6691 
  20   0.0000      -0.015954        -0.4341 
  21   0.0000       0.013068         0.3556 
  22   0.0000       0.013068         0.3556 
  23   0.0000       0.024557         0.6682 
  24   0.0000       0.050775         1.3817 
  25   0.0000       0.057052         1.5525 
  26   0.0000       0.062430         1.6988 
  27   0.0000       0.062430         1.6988 
  28   0.0000       0.079874         2.1735 
  29   0.0000       0.098077         2.6688 
  30   0.0000       0.098077         2.6688 
  31   0.0000       0.099233         2.7003 
  32   0.0000       0.111884         3.0445 
  33   0.0000       0.132935         3.6173 
  34   0.0000       0.139676         3.8008 
  35   0.0000       0.139676         3.8008 
  36   0.0000       0.150105         4.0846 
  37   0.0000       0.165074         4.4919 
  38   0.0000       0.165074         4.4919 
  39   0.0000       0.169860         4.6221 
  40   0.0000       0.175672         4.7803 
  41   0.0000       0.185616         5.0509 
  42   0.0000       0.186289         5.0692 
  43   0.0000       0.186289         5.0692 
  44   0.0000       0.199753         5.4356 
  45   0.0000       0.216736         5.8977 
  46   0.0000       0.219335         5.9684 
  47   0.0000       0.219335         5.9684 
  48   0.0000       0.255190         6.9441 
  49   0.0000       0.265831         7.2336 
  50   0.0000       0.270137         7.3508 
  51   0.0000       0.275195         7.4884 
  52   0.0000       0.275195         7.4884 
  53   0.0000       0.292037         7.9467 
  54   0.0000       0.306182         8.3316 
  55   0.0000       0.306183         8.3317 
  56   0.0000       0.308325         8.3899 
  57   0.0000       0.335233         9.1222 
  58   0.0000       0.338720         9.2170 
  59   0.0000       0.338721         9.2171 
  60   0.0000       0.344586         9.3767 
  61   0.0000       0.358102         9.7445 
  62   0.0000       0.362734         9.8705 
  63   0.0000       0.374176        10.1818 
  64   0.0000       0.374176        10.1818 
  65   0.0000       0.383517        10.4360 
  66   0.0000       0.383518        10.4360 
  67   0.0000       0.385075        10.4784 
  68   0.0000       0.402027        10.9397 
  69   0.0000       0.402028        10.9398 
  70   0.0000       0.410013        11.1570 
  71   0.0000       0.414092        11.2680 
  72   0.0000       0.463645        12.6164 
  73   0.0000       0.478833        13.0297 
  74   0.0000       0.478834        13.0297 
  75   0.0000       0.488681        13.2977 
  76   0.0000       0.496639        13.5142 
  77   0.0000       0.544833        14.8257 
  78   0.0000       0.546270        14.8648 
  79   0.0000       0.546271        14.8648 
  80   0.0000       0.556681        15.1481 
  81   0.0000       0.581735        15.8298 
  82   0.0000       0.641041        17.4436 
  83   0.0000       0.641042        17.4436 
  84   0.0000       0.647536        17.6203 
  85   0.0000       0.676343        18.4042 
  86   0.0000       0.680959        18.5298 
  87   0.0000       0.680960        18.5299 
  88   0.0000       0.685470        18.6526 
  89   0.0000       0.703008        19.1298 
  90   0.0000       0.703008        19.1298 
  91   0.0000       0.711554        19.3624 
  92   0.0000       0.732912        19.9435 
  93   0.0000       0.737099        20.0575 
  94   0.0000       0.755964        20.5708 
  95   0.0000       0.755964        20.5708 
  96   0.0000       0.769435        20.9374 
  97   0.0000       0.782028        21.2801 
  98   0.0000       0.782028        21.2801 
  99   0.0000       0.833336        22.6762 
 100   0.0000       0.845785        23.0150 
 101   0.0000       0.846387        23.0314 
 102   0.0000       0.846388        23.0314 
 103   0.0000       0.853655        23.2291 
 104   0.0000       0.853656        23.2291 
 105   0.0000       0.858779        23.3686 
 106   0.0000       0.860601        23.4181 
 107   0.0000       0.874629        23.7999 
 108   0.0000       0.882557        24.0156 
 109   0.0000       0.882558        24.0156 
 110   0.0000       0.910828        24.7849 
 111   0.0000       0.915111        24.9014 
 112   0.0000       0.916182        24.9306 
 113   0.0000       0.935809        25.4646 
 114   0.0000       0.962022        26.1779 
 115   0.0000       0.962022        26.1780 
 116   0.0000       0.964916        26.2567 
 117   0.0000       0.968182        26.3456 
 118   0.0000       1.032123        28.0855 
 119   0.0000       1.032124        28.0855 
 120   0.0000       1.035403        28.1747 
 121   0.0000       1.071156        29.1476 
 122   0.0000       1.071158        29.1477 
 123   0.0000       1.091565        29.7030 
 124   0.0000       1.102819        30.0092 
 125   0.0000       1.104919        30.0664 
 126   0.0000       1.115333        30.3497 
 127   0.0000       1.115334        30.3498 
 128   0.0000       1.122872        30.5549 
 129   0.0000       1.124149        30.5897 
 130   0.0000       1.124150        30.5897 
 131   0.0000       1.164628        31.6911 
 132   0.0000       1.169319        31.8188 
 133   0.0000       1.196275        32.5523 
 134   0.0000       1.198312        32.6077 
 135   0.0000       1.198313        32.6077 
 136   0.0000       1.202389        32.7187 
 137   0.0000       1.235028        33.6068 
 138   0.0000       1.235029        33.6068 
 139   0.0000       1.239538        33.7295 
 140   0.0000       1.261046        34.3148 
 141   0.0000       1.267819        34.4991 
 142   0.0000       1.267820        34.4991 
 143   0.0000       1.315706        35.8022 
 144   0.0000       1.336863        36.3779 
 145   0.0000       1.348352        36.6905 
 146   0.0000       1.389556        37.8117 
 147   0.0000       1.389557        37.8118 
 148   0.0000       1.410231        38.3743 
 149   0.0000       1.410231        38.3743 
 150   0.0000       1.413277        38.4572 
 151   0.0000       1.433622        39.0108 
 152   0.0000       1.487136        40.4670 
 153   0.0000       1.507095        41.0101 
 154   0.0000       1.507096        41.0102 
 155   0.0000       1.510929        41.1145 
 156   0.0000       1.515285        41.2330 
 157   0.0000       1.564984        42.5854 
 158   0.0000       1.571159        42.7534 
 159   0.0000       1.608333        43.7650 
 160   0.0000       1.608333        43.7650 
 161   0.0000       1.629122        44.3307 
 162   0.0000       1.634559        44.4786 
 163   0.0000       1.635459        44.5031 
 164   0.0000       1.635460        44.5031 
 165   0.0000       1.682359        45.7793 
 166   0.0000       1.682360        45.7793 
 167   0.0000       1.687358        45.9154 
 168   0.0000       1.705062        46.3971 
 169   0.0000       1.831493        49.8374 
 170   0.0000       1.831493        49.8375 
 171   0.0000       1.841702        50.1153 
 172   0.0000       1.864886        50.7461 
 173   0.0000       1.873901        50.9914 
 174   0.0000       1.873901        50.9914 
 175   0.0000       1.885700        51.3125 
 176   0.0000       1.925864        52.4054 
 177   0.0000       1.996549        54.3289 
 178   0.0000       1.996549        54.3289 
 179   0.0000       2.065965        56.2178 
 180   0.0000       2.081089        56.6293 
 181   0.0000       2.184170        59.4343 
 182   0.0000       2.184171        59.4343 
 183   0.0000       2.193849        59.6977 
 184   0.0000       2.202143        59.9234 
 185   0.0000       2.217039        60.3287 
 186   0.0000       2.217040        60.3287 
 187   0.0000       2.250213        61.2314 
 188   0.0000       2.272118        61.8275 
 189   0.0000       2.276323        61.9419 
 190   0.0000       2.276323        61.9419 
 191   0.0000       2.298633        62.5490 
 192   0.0000       2.352963        64.0274 
 193   0.0000       2.352964        64.0274 
 194   0.0000       2.360734        64.2388 
 195   0.0000       2.364224        64.3338 
 196   0.0000       2.368732        64.4565 
 197   0.0000       2.388887        65.0049 
 198   0.0000       2.388888        65.0049 
 199   0.0000       2.410610        65.5960 
 200   0.0000       2.453395        66.7603 
 201   0.0000       2.473143        67.2976 
 202   0.0000       2.478862        67.4533 
 203   0.0000       2.478863        67.4533 
 204   0.0000       2.559872        69.6577 
 205   0.0000       2.565850        69.8203 
 206   0.0000       2.592945        70.5576 
 207   0.0000       2.592945        70.5576 
 208   0.0000       2.609815        71.0167 
 209   0.0000       2.658179        72.3327 
 210   0.0000       2.658179        72.3327 
 211   0.0000       2.665876        72.5422 
 212   0.0000       2.697111        73.3921 
 213   0.0000       2.708029        73.6892 
 214   0.0000       2.730414        74.2983 
 215   0.0000       2.730415        74.2984 
 216   0.0000       2.739415        74.5433 
 217   0.0000       2.740957        74.5852 
 218   0.0000       2.747229        74.7559 
 219   0.0000       2.812159        76.5227 
 220   0.0000       2.812159        76.5227 
 221   0.0000       2.873061        78.1800 
 222   0.0000       2.893662        78.7405 
 223   0.0000       2.893662        78.7406 
 224   0.0000       2.907066        79.1053 
 225   0.0000       2.937761        79.9405 
 226   0.0000       2.960483        80.5588 
 227   0.0000       2.960483        80.5588 
 228   0.0000       3.020156        82.1826 
 229   0.0000       3.030799        82.4722 
 230   0.0000       3.030799        82.4722 
 231   0.0000       3.051908        83.0466 
 232   0.0000       3.681784       100.1864 
 233   0.0000       3.719284       101.2069 
 234   0.0000       3.719284       101.2069 
 235   0.0000       3.752406       102.1082 
 236   0.0000       3.853869       104.8691 
 237   0.0000       3.924898       106.8019 
 238   0.0000       3.924898       106.8019 
 239   0.0000       3.979950       108.3000 
 240   0.0000       3.998836       108.8139 
 241   0.0000       3.998836       108.8139 
 242   0.0000       4.015647       109.2713 
 243   0.0000       4.028486       109.6207 
 244   0.0000       4.069855       110.7464 
 245   0.0000       4.087933       111.2383 
 246   0.0000       4.087934       111.2383 
 247   0.0000       4.119337       112.0929 
 248   0.0000       4.133415       112.4760 
 249   0.0000       4.133416       112.4760 
 250   0.0000       4.140688       112.6738 
 251   0.0000       4.168017       113.4175 
 252   0.0000       4.181457       113.7832 
 253   0.0000       4.191334       114.0520 
 254   0.0000       4.191334       114.0520 
 255   0.0000       4.271103       116.2226 
 256   0.0000       4.304604       117.1342 
 257   0.0000       4.321699       117.5994 
 258   0.0000       4.356284       118.5405 
 259   0.0000       4.356284       118.5405 
 260   0.0000       4.381344       119.2224 
 261   0.0000       4.395441       119.6060 
 262   0.0000       4.417555       120.2078 
 263   0.0000       4.417555       120.2078 
 264   0.0000       4.449632       121.0806 
 265   0.0000       4.469039       121.6087 
 266   0.0000       4.469039       121.6087 
 267   0.0000       4.482701       121.9805 
 268   0.0000       4.494069       122.2898 
 269   0.0000       4.531419       123.3062 
 270   0.0000       4.550807       123.8337 
 271   0.0000       4.550807       123.8338 
 272   0.0000       4.590549       124.9152 
 273   0.0000       4.603087       125.2564 
 274   0.0000       4.605125       125.3118 
 275   0.0000       4.605125       125.3118 
 276   0.0000       4.715097       128.3043 
 277   0.0000       4.715097       128.3043 
 278   0.0000       4.789354       130.3250 
 279   0.0000       4.807902       130.8297 
 280   0.0000       4.859342       132.2294 
 281   0.0000       4.895700       133.2188 
 282   0.0000       4.895701       133.2188 
 283   0.0000       4.901297       133.3711 
 284   0.0000       5.002933       136.1367 
 285   0.0000       5.004989       136.1927 
 286   0.0000       5.027791       136.8132 
 287   0.0000       5.027791       136.8132 
 288   0.0000       5.118532       139.2823 
 289   0.0000       5.131807       139.6436 
 290   0.0000       5.142901       139.9454 
 291   0.0000       5.142901       139.9455 
 292   0.0000       5.188524       141.1869 
 293   0.0000       5.188524       141.1869 
 294   0.0000       5.202858       141.5770 
 295   0.0000       5.221616       142.0874 
 296   0.0000       5.240785       142.6090 
 297   0.0000       5.319400       144.7482 
 298   0.0000       5.319401       144.7482 
 299   0.0000       5.361469       145.8930 
 300   0.0000       5.384907       146.5308 
 301   0.0000       5.502345       149.7264 
 302   0.0000       5.502345       149.7264 
 303   0.0000       5.565824       151.4538 
 304   0.0000       5.650333       153.7534 
 305   0.0000       5.650333       153.7534 
 306   0.0000       5.689660       154.8235 
 307   0.0000       5.703308       155.1949 
 308   0.0000       6.143363       167.1694 
 309   0.0000       6.150534       167.3645 
 310   0.0000       6.156641       167.5307 
 311   0.0000       6.156642       167.5307 
 312   0.0000       6.284436       171.0082 
 313   0.0000       6.322087       172.0327 
 314   0.0000       6.322087       172.0327 
 315   0.0000       6.351956       172.8455 
 316   0.0000       6.591152       179.3544 
 317   0.0000       6.629828       180.4068 
 318   0.0000       6.631707       180.4579 
 319   0.0000       6.631707       180.4579 
 320   0.0000       6.715245       182.7311 
 321   0.0000       6.750653       183.6946 
 322   0.0000       6.750653       183.6946 
 323   0.0000       6.764200       184.0632 
 324   0.0000       6.924654       188.4294 
 325   0.0000       6.958181       189.3417 
 326   0.0000       6.959199       189.3694 
 327   0.0000       6.959199       189.3694 
 328   0.0000       6.987247       190.1326 
 329   0.0000       7.002252       190.5410 
 330   0.0000       7.032600       191.3668 
 331   0.0000       7.032600       191.3668 
 332   0.0000       7.061707       192.1588 
 333   0.0000       7.097976       193.1458 
 334   0.0000       7.097976       193.1458 
 335   0.0000       7.117070       193.6653 
 336   0.0000       7.119337       193.7270 
 337   0.0000       7.139142       194.2659 
 338   0.0000       7.140945       194.3150 
 339   0.0000       7.140945       194.3150 
 340   0.0000       7.188154       195.5996 
 341   0.0000       7.211975       196.2478 
 342   0.0000       7.217088       196.3870 
 343   0.0000       7.217088       196.3870 
 344   0.0000       7.261016       197.5823 
 345   0.0000       7.280817       198.1211 
 346   0.0000       7.280817       198.1211 
 347   0.0000       7.350839       200.0265 
 348   0.0000       7.531935       204.9544 
 349   0.0000       7.622646       207.4228 
 350   0.0000       7.669293       208.6921 
 351   0.0000       7.669293       208.6921 
 352   0.0000       7.774395       211.5520 
 353   0.0000       7.775740       211.5886 
 354   0.0000       7.775740       211.5886 
 355   0.0000       7.793546       212.0732 
 356   0.0000       7.827270       212.9908 
 357   0.0000       7.843655       213.4367 
 358   0.0000       7.843655       213.4367 
 359   0.0000       7.969895       216.8719 
 360   0.0000       8.706066       236.9041 
 361   0.0000       8.718770       237.2498 
 362   0.0000       8.718771       237.2498 
 363   0.0000       8.776035       238.8081 
 364   0.0000      15.624510       425.1645 
 365   0.0000      16.565986       450.7834 
 366   0.0000      16.565986       450.7834 
 367   0.0000      17.139249       466.3827 

                    ********************************
                    * MULLIKEN POPULATION ANALYSIS *
                    ********************************

-----------------------
MULLIKEN ATOMIC CHARGES
-----------------------
   0 O :   -0.434416
   1 H :    0.277823
   2 H :    0.156593
   3 O :   -0.434415
   4 H :    0.277823
   5 H :    0.156593
   6 O :   -0.434416
   7 H :    0.277823
   8 H :    0.156593
   9 O :   -0.434416
  10 H :    0.277823
  11 H :    0.156592
Sum of atomic charges:    0.0000000

--------------------------------
MULLIKEN REDUCED ORBITAL CHARGES
--------------------------------
  0 O s       :     3.923937  s :     3.923937
      pz      :     1.493870  p :     4.500952
      px      :     1.345458
      py      :     1.661625
      dz2     :     0.001305  d :     0.009492
      dxz     :     0.000820
      dyz     :     0.001769
      dx2y2   :     0.004206
      dxy     :     0.001392
      f0      :     0.000014  f :     0.000035
      f+1     :    -0.000041
      f-1     :     0.000105
      f+2     :     0.000096
      f-2     :     0.000009
      f+3     :    -0.000018
      f-3     :    -0.000131
  1 H s       :     0.608223  s :     0.608223
      pz      :     0.042492  p :     0.073353
      px      :    -0.016590
      py      :     0.047451
      dz2     :     0.001678  d :     0.040601
      dxz     :     0.014464
      dyz     :     0.000091
      dx2y2   :     0.005262
      dxy     :     0.019105
  2 H s       :     0.713549  s :     0.713549
      pz      :     0.029371  p :     0.110755
      px      :     0.034245
      py      :     0.047139
      dz2     :     0.007010  d :     0.019102
      dxz     :     0.002506
      dyz     :     0.003294
      dx2y2   :     0.003970
      dxy     :     0.002322
  3 O s       :     3.923938  s :     3.923938
      pz      :     1.493870  p :     4.500951
      px      :     1.661625
      py      :     1.345456
      dz2     :     0.001305  d :     0.009492
      dxz     :     0.001769
      dyz     :     0.000820
      dx2y2   :     0.004206
      dxy     :     0.001392
      f0      :     0.000014  f :     0.000035
      f+1     :     0.000105
      f-1     :    -0.000041
      f+2     :     0.000096
      f-2     :     0.000009
      f+3     :    -0.000131
      f-3     :    -0.000018
  4 H s       :     0.608224  s :     0.608224
      pz      :     0.042492  p :     0.073353
      px      :     0.047451
      py      :    -0.016591
      dz2     :     0.001678  d :     0.040601
      dxz     :     0.000091
      dyz     :     0.014464
      dx2y2   :     0.005262
      dxy     :     0.019105
  5 H s       :     0.713549  s :     0.713549
      pz      :     0.029371  p :     0.110755
      px      :     0.047139
      py      :     0.034245
      dz2     :     0.007010  d :     0.019102
      dxz     :     0.003294
      dyz     :     0.002506
      dx2y2   :     0.003970
      dxy     :     0.002322
  6 O s       :     3.923938  s :     3.923938
      pz      :     1.493869  p :     4.500951
      px      :     1.345456
      py      :     1.661626
      dz2     :     0.001305  d :     0.009492
      dxz     :     0.000820
      dyz     :     0.001769
      dx2y2   :     0.004206
      dxy     :     0.001392
      f0      :     0.000014  f :     0.000035
      f+1     :    -0.000041
      f-1     :     0.000105
      f+2     :     0.000096
      f-2     :     0.000009
      f+3     :    -0.000018
      f-3     :    -0.000131
  7 H s       :     0.608224  s :     0.608224
      pz      :     0.042492  p :     0.073352
      px      :    -0.016591
      py      :     0.047451
      dz2     :     0.001678  d :     0.040601
      dxz     :     0.014464
      dyz     :     0.000091
      dx2y2   :     0.005262
      dxy     :     0.019105
  8 H s       :     0.713550  s :     0.713550
      pz      :     0.029371  p :     0.110755
      px      :     0.034245
      py      :     0.047139
      dz2     :     0.007010  d :     0.019102
      dxz     :     0.002506
      dyz     :     0.003294
      dx2y2   :     0.003970
      dxy     :     0.002322
  9 O s       :     3.923937  s :     3.923937
      pz      :     1.493869  p :     4.500952
      px      :     1.661626
      py      :     1.345457
      dz2     :     0.001305  d :     0.009492
      dxz     :     0.001769
      dyz     :     0.000820
      dx2y2   :     0.004206
      dxy     :     0.001392
      f0      :     0.000014  f :     0.000035
      f+1     :     0.000105
      f-1     :    -0.000041
      f+2     :     0.000096
      f-2     :     0.000009
      f+3     :    -0.000131
      f-3     :    -0.000018
 10 H s       :     0.608224  s :     0.608224
      pz      :     0.042492  p :     0.073353
      px      :     0.047451
      py      :    -0.016591
      dz2     :     0.001678  d :     0.040601
      dxz     :     0.000091
      dyz     :     0.014464
      dx2y2   :     0.005262
      dxy     :     0.019105
 11 H s       :     0.713550  s :     0.713550
      pz      :     0.029371  p :     0.110756
      px      :     0.047139
      py      :     0.034245
      dz2     :     0.007010  d :     0.019102
      dxz     :     0.003294
      dyz     :     0.002506
      dx2y2   :     0.003970
      dxy     :     0.002322


                     *******************************
                     * LOEWDIN POPULATION ANALYSIS *
                     *******************************

----------------------
LOEWDIN ATOMIC CHARGES
----------------------
   0 O :    1.119912
   1 H :   -0.659995
   2 H :   -0.459917
   3 O :    1.119913
   4 H :   -0.659996
   5 H :   -0.459916
   6 O :    1.119913
   7 H :   -0.659996
   8 H :   -0.459917
   9 O :    1.119912
  10 H :   -0.659995
  11 H :   -0.459918

-------------------------------
LOEWDIN REDUCED ORBITAL CHARGES
-------------------------------
  0 O s       :     2.956149  s :     2.956149
      pz      :     1.282301  p :     3.806795
      px      :     1.218379
      py      :     1.306115
      dz2     :     0.020239  d :     0.098600
      dxz     :     0.009871
      dyz     :     0.018236
      dx2y2   :     0.040763
      dxy     :     0.009490
      f0      :     0.000339  f :     0.018544
      f+1     :     0.003196
      f-1     :     0.005061
      f+2     :     0.001099
      f-2     :     0.002063
      f+3     :     0.004178
      f-3     :     0.002609
  1 H s       :     0.540972  s :     0.540972
      pz      :     0.141989  p :     0.622612
      px      :     0.337562
      py      :     0.143061
      dz2     :     0.049348  d :     0.496411
      dxz     :     0.152961
      dyz     :     0.001633
      dx2y2   :     0.150630
      dxy     :     0.141838
  2 H s       :     0.582139  s :     0.582139
      pz      :     0.221340  p :     0.532556
      px      :     0.136751
      py      :     0.174465
      dz2     :     0.105280  d :     0.345222
      dxz     :     0.073814
      dyz     :     0.082849
      dx2y2   :     0.047796
      dxy     :     0.035483
  3 O s       :     2.956148  s :     2.956148
      pz      :     1.282301  p :     3.806795
      px      :     1.306115
      py      :     1.218379
      dz2     :     0.020239  d :     0.098600
      dxz     :     0.018236
      dyz     :     0.009871
      dx2y2   :     0.040763
      dxy     :     0.009490
      f0      :     0.000339  f :     0.018544
      f+1     :     0.005061
      f-1     :     0.003196
      f+2     :     0.001099
      f-2     :     0.002063
      f+3     :     0.002609
      f-3     :     0.004178
  4 H s       :     0.540973  s :     0.540973
      pz      :     0.141989  p :     0.622613
      px      :     0.143061
      py      :     0.337562
      dz2     :     0.049348  d :     0.496411
      dxz     :     0.001633
      dyz     :     0.152961
      dx2y2   :     0.150630
      dxy     :     0.141839
  5 H s       :     0.582139  s :     0.582139
      pz      :     0.221339  p :     0.532555
      px      :     0.174465
      py      :     0.136750
      dz2     :     0.105280  d :     0.345222
      dxz     :     0.082849
      dyz     :     0.073814
      dx2y2   :     0.047796
      dxy     :     0.035483
  6 O s       :     2.956148  s :     2.956148
      pz      :     1.282301  p :     3.806795
      px      :     1.218379
      py      :     1.306115
      dz2     :     0.020239  d :     0.098600
      dxz     :     0.009871
      dyz     :     0.018236
      dx2y2   :     0.040763
      dxy     :     0.009490
      f0      :     0.000339  f :     0.018544
      f+1     :     0.003196
      f-1     :     0.005061
      f+2     :     0.001099
      f-2     :     0.002063
      f+3     :     0.004178
      f-3     :     0.002609
  7 H s       :     0.540973  s :     0.540973
      pz      :     0.141989  p :     0.622613
      px      :     0.337562
      py      :     0.143061
      dz2     :     0.049348  d :     0.496411
      dxz     :     0.152961
      dyz     :     0.001633
      dx2y2   :     0.150630
      dxy     :     0.141839
  8 H s       :     0.582139  s :     0.582139
      pz      :     0.221340  p :     0.532556
      px      :     0.136751
      py      :     0.174465
      dz2     :     0.105280  d :     0.345222
      dxz     :     0.073814
      dyz     :     0.082849
      dx2y2   :     0.047795
      dxy     :     0.035483
  9 O s       :     2.956149  s :     2.956149
      pz      :     1.282301  p :     3.806795
      px      :     1.306115
      py      :     1.218379
      dz2     :     0.020239  d :     0.098600
      dxz     :     0.018236
      dyz     :     0.009871
      dx2y2   :     0.040763
      dxy     :     0.009490
      f0      :     0.000339  f :     0.018544
      f+1     :     0.005061
      f-1     :     0.003196
      f+2     :     0.001099
      f-2     :     0.002063
      f+3     :     0.002609
      f-3     :     0.004178
 10 H s       :     0.540972  s :     0.540972
      pz      :     0.141989  p :     0.622612
      px      :     0.143061
      py      :     0.337562
      dz2     :     0.049348  d :     0.496411
      dxz     :     0.001633
      dyz     :     0.152961
      dx2y2   :     0.150630
      dxy     :     0.141838
 11 H s       :     0.582140  s :     0.582140
      pz      :     0.221340  p :     0.532556
      px      :     0.174465
      py      :     0.136751
      dz2     :     0.105280  d :     0.345222
      dxz     :     0.082849
      dyz     :     0.073814
      dx2y2   :     0.047795
      dxy     :     0.035483


                      *****************************
                      * MAYER POPULATION ANALYSIS *
                      *****************************

  NA   - Mulliken gross atomic population
  ZA   - Total nuclear charge
  QA   - Mulliken gross atomic charge
  VA   - Mayer's total valence
  BVA  - Mayer's bonded valence
  FA   - Mayer's free valence

  ATOM       NA         ZA         QA         VA         BVA        FA
  0 O      8.4344     8.0000    -0.4344     1.9092     1.9092     0.0000
  1 H      0.7222     1.0000     0.2778     0.9865     0.9865     0.0000
  2 H      0.8434     1.0000     0.1566     1.0959     1.0959     0.0000
  3 O      8.4344     8.0000    -0.4344     1.9092     1.9092     0.0000
  4 H      0.7222     1.0000     0.2778     0.9865     0.9865    -0.0000
  5 H      0.8434     1.0000     0.1566     1.0959     1.0959     0.0000
  6 O      8.4344     8.0000    -0.4344     1.9092     1.9092     0.0000
  7 H      0.7222     1.0000     0.2778     0.9865     0.9865    -0.0000
  8 H      0.8434     1.0000     0.1566     1.0959     1.0959     0.0000
  9 O      8.4344     8.0000    -0.4344     1.9092     1.9092     0.0000
 10 H      0.7222     1.0000     0.2778     0.9865     0.9865     0.0000
 11 H      0.8434     1.0000     0.1566     1.0959     1.0959    -0.0000

  Mayer bond orders larger than 0.100000
B(  0-O ,  1-H ) :   0.8525 B(  0-O ,  2-H ) :   1.0558 B(  3-O ,  4-H ) :   0.8525 
B(  3-O ,  5-H ) :   1.0558 B(  6-O ,  7-H ) :   0.8525 B(  6-O ,  8-H ) :   1.0558 
B(  9-O , 10-H ) :   0.8525 B(  9-O , 11-H ) :   1.0558 

-------
TIMINGS
-------

Total SCF time: 0 days 0 hours 0 min 4 sec 

Total time                  ....       4.202 sec
Sum of individual times     ....       3.951 sec  ( 94.0%)

Fock matrix formation       ....       3.240 sec  ( 77.1%)
  Split-RI-J                ....       1.321 sec  ( 40.8% of F)
  XC integration            ....       1.785 sec  ( 55.1% of F)
    Basis function eval.    ....       0.172 sec  (  9.7% of XC)
    Density eval.           ....       0.404 sec  ( 22.6% of XC)
    XC-Functional eval.     ....       0.036 sec  (  2.0% of XC)
    XC-Potential eval.      ....       0.909 sec  ( 50.9% of XC)
Diagonalization             ....       0.133 sec  (  3.2%)
Density matrix formation    ....       0.022 sec  (  0.5%)
Population analysis         ....       0.019 sec  (  0.5%)
Initial guess               ....       0.175 sec  (  4.2%)
Orbital Transformation      ....       0.000 sec  (  0.0%)
Orbital Orthonormalization  ....       0.000 sec  (  0.0%)
DIIS solution               ....       0.054 sec  (  1.3%)
SOSCF solution              ....       0.097 sec  (  2.3%)
Grid generation             ....       0.211 sec  (  5.0%)


-------------------------------------------------------------------------------
                          DFT DISPERSION CORRECTION                            
                                                                               
                              DFTD3 V3.1  Rev 1                                
                          USING Becke-Johnson damping                          
-------------------------------------------------------------------------------
The SCAN functional is recognized
Active option DFTDOPT                   ...         4   

molecular C6(AA) [au] = 712.183247 


            DFT-D V3
 parameters
 s6 scaling factor         :     1.0000 
 a1 scaling factor         :     0.5380 
 s8 scaling factor         :     0.0000 
 a2 scaling factor         :     5.4200 
 ad hoc parameters k1-k3   :    16.0000     1.3333    -4.0000 

 Edisp/kcal,au: -0.864405375385  -0.001377517502 
 E6   /kcal   :  -0.864405375 
 E8   /kcal   :  -0.000000000 
 % E8         :   0.000000000 

-------------------------   ----------------
Dispersion correction           -0.001377518
-------------------------   ----------------


-------------------------   --------------------
FINAL SINGLE POINT ENERGY      -305.754910405935
-------------------------   --------------------



           ************************************************************
           *        Program running with 24 parallel MPI-processes    *
           *              working on a common directory               *
           ************************************************************
------------------------------------------------------------------------------
                         ORCA SCF GRADIENT CALCULATION
------------------------------------------------------------------------------

Gradient of the Kohn-Sham DFT energy:
Kohn-Sham wavefunction type      ... RKS
Hartree-Fock exchange scaling    ...    0.000
Number of operators              ...    1
Number of atoms                  ...   12
Basis set dimensions             ...  368
Integral neglect threshold       ... 2.5e-11
Integral primitive cutoff        ... 2.5e-12

Nuclear repulsion gradient       ... done
One Electron Gradient            ... done
Pre-screening matrix             ... done
RI-J gradient                    ... done
Exchange-correlation gradient    ... done
Dispersion correction            ... done

------------------
CARTESIAN GRADIENT
------------------

   1   O   :    0.024310646    0.047378466   -0.058662013
   2   H   :    0.006266592   -0.000000254    0.000211831
   3   H   :   -0.001060646    0.001574587   -0.002903409
   4   O   :    0.047378480   -0.024309461    0.058662270
   5   H   :   -0.000000112   -0.006267394   -0.000211789
   6   H   :    0.001574430    0.001060478    0.002903130
   7   O   :   -0.024309664   -0.047378127   -0.058661865
   8   H   :   -0.006267373    0.000000087    0.000211783
   9   H   :    0.001060639   -0.001574712   -0.002903544
  10   O   :   -0.047378103    0.024310854    0.058661613
  11   H   :    0.000000251    0.006266583   -0.000211827
  12   H   :   -0.001574870   -0.001060810    0.002903815

Difference to translation invariance:
           :    0.0000002700    0.0000002982   -0.0000000044

Norm of the cartesian gradient     ...    0.1591007769
RMS gradient                       ...    0.0265167961
MAX gradient                       ...    0.0586622701

-------
TIMINGS
-------

Total SCF gradient time            ...        1.609 sec

One electron gradient       ....       0.024 sec  (  1.5%)
Prescreening matrices       ....       0.075 sec  (  4.7%)
RI-J Coulomb gradient       ....       0.325 sec  ( 20.2%)
XC gradient                 ....       0.833 sec  ( 51.8%)
------------------------------------------------------------------------------
                         ORCA GEOMETRY RELAXATION STEP
------------------------------------------------------------------------------

Reading the OPT-File                    .... done
Getting information on internals        .... done
Copying old internal coords+grads       .... done
Making the new internal coordinates     .... (new redundants).... done
Validating the new internal coordinates .... (new redundants).... done
Calculating the B-matrix                .... done
Calculating the G,G- and P matrices     .... done
Transforming gradient to internals      .... done
Projecting the internal gradient        .... done
Number of atoms                         ....  12
Number of internal coordinates          .... 124
Current Energy                          ....  -305.754910406 Eh
Current gradient norm                   ....     0.159100777 Eh/bohr
Maximum allowed component of the step   ....  0.300
Current trust radius                    ....  0.300
Evaluating the initial hessian          ....  (Almloef) done
Projecting the Hessian                  .... done
Forming the augmented Hessian           .... done
Diagonalizing the augmented Hessian     .... done
Last element of RFO vector              ....  0.823988823
Lowest eigenvalues of augmented Hessian:
 -0.053633886  0.015221311  0.017757676  0.032219016  0.032219016
Length of the computed step             ....  0.687638032
Warning: the length of the step is outside the trust region - taking restricted step instead
The input lambda is                     ....    -0.053634
   iter:   1  x=   -0.093957  g=    9.494497 f(x)=     0.382846
   iter:   2  x=   -0.141326  g=    3.287340 f(x)=     0.155720
   iter:   3  x=   -0.179365  g=    1.402191 f(x)=     0.053337
   iter:   4  x=   -0.194151  g=    0.827720 f(x)=     0.012239
   iter:   5  x=   -0.195668  g=    0.691459 f(x)=     0.001049
   iter:   6  x=   -0.195682  g=    0.679265 f(x)=     0.000009
   iter:   7  x=   -0.195682  g=    0.679157 f(x)=     0.000000
   iter:   8  x=   -0.195682  g=    0.679157 f(x)=     0.000000
The output lambda is                    ....    -0.195682 (8 iterations)
The final length of the internal step   ....  0.300000000
Converting the step to cartesian space:
 Initial RMS(Int)=    0.0269407953
Transforming coordinates:
 Iter   0:  RMS(Cart)=    0.0430324339 RMS(Int)=    0.0267950625
 Iter   1:  RMS(Cart)=    0.0006364362 RMS(Int)=    0.0005486899
 Iter   2:  RMS(Cart)=    0.0000157296 RMS(Int)=    0.0000148842
 Iter   3:  RMS(Cart)=    0.0000004976 RMS(Int)=    0.0000005635
 Iter   4:  RMS(Cart)=    0.0000000176 RMS(Int)=    0.0000000232
done
Storing new coordinates                 .... done

                                .--------------------.
          ----------------------|Geometry convergence|-------------------------
          Item                value                   Tolerance       Converged
          ---------------------------------------------------------------------
          RMS gradient        0.0076815851            0.0001000000      NO
          MAX gradient        0.0163158528            0.0003000000      NO
          RMS step            0.0269407953            0.0020000000      NO
          MAX step            0.0530568748            0.0040000000      NO
          ........................................................
          Max(Bonds)      0.0223      Max(Angles)    2.78
          Max(Dihed)        3.04      Max(Improp)    0.00
          ---------------------------------------------------------------------

The optimization has not yet converged - more geometry cycles are needed


    ---------------------------------------------------------------------------
                         Redundant Internal Coordinates
                            (Angstroem and degrees)

        Definition                    Value    dE/dq     Step     New-Value
    ----------------------------------------------------------------------------
     1. B(H   1,O   0)                0.9766 -0.005544  0.0047    0.9813   
     2. B(H   2,O   0)                0.9584 -0.001118  0.0008    0.9592   
     3. B(O   3,H   1)                1.7843 -0.009619  0.0223    1.8066   
     4. B(H   4,H   1)                2.2133 -0.006040  0.0163    2.2296   
     5. B(H   4,O   3)                0.9766 -0.005545  0.0047    0.9813   
     6. B(H   5,O   3)                0.9584 -0.001118  0.0008    0.9592   
     7. B(O   6,H   4)                1.7843 -0.009619  0.0223    1.8066   
     8. B(H   7,O   6)                0.9766 -0.005545  0.0047    0.9813   
     9. B(H   7,H   4)                2.2133 -0.006040  0.0163    2.2296   
    10. B(H   8,O   6)                0.9584 -0.001118  0.0008    0.9592   
    11. B(O   9,H   7)                1.7843 -0.009619  0.0223    1.8066   
    12. B(H  10,O   9)                0.9766 -0.005544  0.0047    0.9813   
    13. B(H  10,H   1)                2.2133 -0.006040  0.0163    2.2296   
    14. B(H  10,O   0)                1.7843 -0.009619  0.0223    1.8066   
    15. B(H  10,H   7)                2.2133 -0.006040  0.0163    2.2296   
    16. B(H  11,O   9)                0.9584 -0.001119  0.0008    0.9592   
    17. A(H   1,O   0,H  10)          102.61  0.004176   -0.50    102.12   
    18. A(H   2,O   0,H  10)          119.85  0.006781   -0.81    119.04   
    19. A(H   1,O   0,H   2)          105.48 -0.016316    2.78    108.26   
    20. A(O   0,H   1,O   3)          167.32 -0.004097    0.49    167.81   
    21. A(O   0,H   1,H  10)           51.88 -0.002986    0.51     52.40   
    22. A(O   0,H   1,H   4)          141.84 -0.002767    0.47    142.31   
    23. A(H   4,H   1,H  10)           90.00 -0.000054    0.01     90.01   
    24. A(O   3,H   1,H   4)           25.51 -0.001190   -0.02     25.49   
    25. A(O   3,H   1,H  10)          115.50 -0.001135   -0.03    115.47   
    26. A(H   1,O   3,H   4)          102.61  0.004177   -0.50    102.12   
    27. A(H   4,O   3,H   5)          105.48 -0.016316    2.78    108.26   
    28. A(H   1,O   3,H   5)          119.85  0.006781   -0.81    119.04   
    29. A(O   3,H   4,H   7)          141.84 -0.002767    0.47    142.31   
    30. A(O   6,H   4,H   7)           25.51 -0.001190   -0.02     25.49   
    31. A(H   1,H   4,H   7)           90.00 -0.000054    0.01     90.01   
    32. A(H   1,H   4,O   6)          115.50 -0.001135   -0.03    115.47   
    33. A(O   3,H   4,O   6)          167.32 -0.004097    0.49    167.81   
    34. A(H   1,H   4,O   3)           51.88 -0.002986    0.51     52.40   
    35. A(H   7,O   6,H   8)          105.48 -0.016316    2.78    108.26   
    36. A(H   4,O   6,H   8)          119.85  0.006781   -0.81    119.04   
    37. A(H   4,O   6,H   7)          102.61  0.004177   -0.50    102.12   
    38. A(H   4,H   7,O   9)          115.50 -0.001135   -0.03    115.47   
    39. A(O   6,H   7,O   9)          167.32 -0.004097    0.49    167.81   
    40. A(H   4,H   7,O   6)           51.88 -0.002986    0.51     52.40   
    41. A(O   9,H   7,H  10)           25.51 -0.001190   -0.02     25.49   
    42. A(H   4,H   7,H  10)           90.00 -0.000054    0.01     90.01   
    43. A(O   6,H   7,H  10)          141.84 -0.002767    0.47    142.31   
    44. A(H   7,O   9,H  11)          119.85  0.006781   -0.81    119.04   
    45. A(H   7,O   9,H  10)          102.61  0.004176   -0.50    102.12   
    46. A(H  10,O   9,H  11)          105.48 -0.016316    2.78    108.26   
    47. A(O   0,H  10,O   9)          167.32 -0.004097    0.49    167.81   
    48. A(O   0,H  10,H   1)           25.51 -0.001190   -0.02     25.49   
    49. A(H   1,H  10,O   9)          141.84 -0.002767    0.47    142.31   
    50. A(H   1,H  10,H   7)           90.00 -0.000054    0.01     90.01   
    51. A(O   0,H  10,H   7)          115.50 -0.001135   -0.03    115.47   
    52. A(H   7,H  10,O   9)           51.88 -0.002986    0.51     52.40   
    53. D(H  10,H   1,O   0,H   2)    126.24  0.002034    0.16    126.40   
    54. D(O   3,H   1,O   0,H   2)    120.24  0.004033    0.13    120.37   
    55. D(H   4,H   1,O   0,H   2)    123.10  0.012320   -1.92    121.18   
    56. D(O   3,H   1,O   0,H  10)     -6.00  0.001999   -0.04     -6.04   
    57. D(H   4,H   1,O   0,H  10)     -3.14  0.010286   -2.08     -5.22   
    58. D(H   4,O   3,H   1,O   0)      4.10  0.012339   -2.97      1.13   
    59. D(H   4,O   3,H   1,H  10)     -1.12  0.014343   -3.04     -4.16   
    60. D(H   5,O   3,H   1,H   4)    116.34 -0.013973    2.72    119.07   
    61. D(H   5,O   3,H   1,O   0)    120.45 -0.001634   -0.25    120.20   
    62. D(H   5,O   3,H   1,H  10)    115.22  0.000370   -0.32    114.90   
    63. D(O   6,H   4,H   1,O   3)   -178.54 -0.000034   -0.05   -178.59   
    64. D(O   3,H   4,H   1,H  10)    178.99  0.012936   -2.74    176.24   
    65. D(O   6,H   4,H   1,H  10)      0.44  0.012901   -2.79     -2.35   
    66. D(O   6,H   4,H   1,O   0)      2.91  0.004713   -1.14      1.77   
    67. D(H   7,H   4,O   3,H   1)      3.14 -0.010286    2.08      5.22   
    68. D(O   6,H   4,O   3,H   1)      6.00 -0.001999    0.04      6.04   
    69. D(O   6,H   4,O   3,H   5)   -120.24 -0.004033   -0.13   -120.37   
    70. D(H   1,H   4,O   3,H   5)   -126.24 -0.002034   -0.16   -126.40   
    71. D(H   7,H   4,H   1,O   3)   -178.06 -0.006230    1.26   -176.80   
    72. D(H   7,H   4,H   1,H  10)      0.93  0.006705   -1.48     -0.56   
    73. D(H   7,H   4,O   3,H   5)   -123.10 -0.012320    1.92   -121.18   
    74. D(O   3,H   4,H   1,O   0)   -178.54  0.004747   -1.09   -179.64   
    75. D(H   7,H   4,H   1,O   0)      3.40 -0.001484    0.17      3.57   
    76. D(H   8,O   6,H   4,H   1)   -115.22 -0.000370    0.32   -114.90   
    77. D(H   8,O   6,H   4,H   7)   -116.34  0.013973   -2.72   -119.07   
    78. D(H   8,O   6,H   4,O   3)   -120.45  0.001634    0.25   -120.20   
    79. D(H   7,O   6,H   4,H   1)      1.12 -0.014343    3.04      4.16   
    80. D(H   7,O   6,H   4,O   3)     -4.10 -0.012339    2.97     -1.13   
    81. D(O   6,H   7,H   4,O   3)    178.54 -0.004747    1.09    179.64   
    82. D(O   6,H   7,H   4,H   1)   -178.99 -0.012936    2.74   -176.24   
    83. D(O   9,H   7,H   4,O   3)     -2.91 -0.004713    1.14     -1.77   
    84. D(H  10,H   7,O   6,H   4)     -3.14  0.010286   -2.08     -5.22   
    85. D(H  10,H   7,O   6,H   8)    123.10  0.012320   -1.92    121.18   
    86. D(O   9,H   7,O   6,H   8)    120.24  0.004033    0.13    120.37   
    87. D(H   4,H   7,O   6,H   8)    126.24  0.002034    0.16    126.40   
[...]
# of grid points (after weights+screening)   ...  49588 (   0.0 sec)
nearest neighbour list constructed           ...    0.0 sec
Grid point re-assignment to atoms done       ...    0.0 sec
Grid point division into batches done        ...    0.1 sec
Reduced shell lists constructed in    0.2 sec

Total number of grid points                  ...    49588
Total number of batches                      ...      780
Average number of points per batch           ...       63
Average number of grid points per atom       ...     4132
Average number of shells per batch           ...    82.12 (64.15%)
Average number of basis functions per batch  ...   226.06 (61.43%)
Average number of large shells per batch     ...    66.03 (80.41%)
Average number of large basis fcns per batch ...   174.44 (77.17%)
Maximum spatial batch extension              ...  10.99, 12.05, 10.76 au
Average spatial batch extension              ...   0.13,  0.14,  0.12 au

Time for grid setup =    0.191 sec

--------------
SCF ITERATIONS
--------------
ITER       Energy         Delta-E        Max-DP      RMS-DP      [F,P]     Damp
               ***  Starting incremental Fock matrix formation  ***
                      *** Initiating the SOSCF procedure ***
                      *** Re-Reading the Fockian *** 
                      *** Removing any level shift *** 
ITER      Energy       Delta-E        Grad      Rot      Max-DP    RMS-DP
  0   -305.69244531 -305.6924453061  0.001243  0.001243  0.001694  0.000045
               *** Restarting incremental Fock matrix formation ***
  1   -305.69254272  -0.0000974125  0.000231  0.000362  0.000495  0.000010
  2   -305.69254653  -0.0000038155  0.000042  0.000053  0.000082  0.000002
  3   -305.69254662  -0.0000000857  0.000020  0.000017  0.000031  0.000001
  4   -305.69254666  -0.0000000392  0.000004  0.000005  0.000006  0.000000
  5   -305.69254665   0.0000000093  0.000005  0.000003  0.000005  0.000000
                 **** Energy Check signals convergence ****
              ***Rediagonalizing the Fockian in SOSCF/NRSCF***

               *****************************************************
               *                     SUCCESS                       *
               *           SCF CONVERGED AFTER   6 CYCLES          *
               *****************************************************

Total Energy       :         -305.69254665 Eh           -8318.31709 eV
  Last Energy change         ...   -1.4991e-09  Tolerance :   1.0000e-08
  Last MAX-Density change    ...    7.7459e-07  Tolerance :   1.0000e-07
             **** THE GBW FILE WAS UPDATED (04_H2O_4.gbw) ****
             **** DENSITY FILE WAS UPDATED (04_H2O_4.scfp) ****
             **** ENERGY FILE WAS UPDATED (04_H2O_4.en.tmp) ****
             **** THE GBW FILE WAS UPDATED (04_H2O_4.gbw) ****
             **** DENSITY FILE WAS UPDATED (04_H2O_4.scfp) ****
Total SCF time: 0 days 0 hours 0 min 2 sec 


-------------------------------------------------------------------------------
                          DFT DISPERSION CORRECTION                            
                                                                               
                              DFTD3 V3.1  Rev 1                                
                          USING Becke-Johnson damping                          
-------------------------------------------------------------------------------
-------------------------   ----------------
Dispersion correction           -0.001169760
-------------------------   ----------------


-------------------------   --------------------
FINAL SINGLE POINT ENERGY      -305.693716411546
-------------------------   --------------------



           ************************************************************
           *        Program running with 24 parallel MPI-processes    *
           *              working on a common directory               *
           ************************************************************
------------------------------------------------------------------------------
                         ORCA SCF GRADIENT CALCULATION
------------------------------------------------------------------------------

Gradient of the Kohn-Sham DFT energy:
Kohn-Sham wavefunction type      ... RKS
Hartree-Fock exchange scaling    ...    0.000
Number of operators              ...    1
Number of atoms                  ...   12
Basis set dimensions             ...  368
Integral neglect threshold       ... 2.5e-11
Integral primitive cutoff        ... 2.5e-12

Nuclear repulsion gradient       ... done
One Electron Gradient            ... done
Pre-screening matrix             ... done
RI-J gradient                    ... done
Exchange-correlation gradient    ... done
Dispersion correction            ... done

------------------
CARTESIAN GRADIENT
------------------

   1   O   :    0.020691407    0.021807074   -0.000876302
   2   H   :    0.019791304    0.015539234    0.003676438
   3   H   :    0.018123770    0.012941608   -0.001709830
   4   O   :    0.021808482   -0.020691756    0.000875319
   5   H   :    0.015538760   -0.019790599   -0.003675069
   6   H   :    0.012941750   -0.018123551    0.001709871
   7   O   :   -0.020690579   -0.021806610   -0.000876342
   8   H   :   -0.019791508   -0.015539156    0.003676071
   9   H   :   -0.018124005   -0.012942069   -0.001709592
  10   O   :   -0.021809107    0.020693250    0.000875140
  11   H   :   -0.015538244    0.019790236   -0.003675444
  12   H   :   -0.012941315    0.018123437    0.001710239

Difference to translation invariance:
           :    0.0000007156    0.0000010984    0.0000004977

Norm of the cartesian gradient     ...    0.0905543511
RMS gradient                       ...    0.0150923918
MAX gradient                       ...    0.0218091070

-------
TIMINGS
-------

Total SCF gradient time            ...        1.216 sec

One electron gradient       ....       0.023 sec  (  1.9%)
Prescreening matrices       ....       0.061 sec  (  5.0%)
RI-J Coulomb gradient       ....       0.253 sec  ( 20.8%)
XC gradient                 ....       0.564 sec  ( 46.4%)
------------------------------------------------------------------------------
                         ORCA GEOMETRY RELAXATION STEP
------------------------------------------------------------------------------

Reading the OPT-File                    .... done
Getting information on internals        .... done
Copying old internal coords+grads       .... done
Making the new internal coordinates     .... (new redundants).... done
Validating the new internal coordinates .... (new redundants).... done
Calculating the B-matrix                .... done
Calculating the G,G- and P matrices     .... done
Transforming gradient to internals      .... done
Projecting the internal gradient        .... done
Number of atoms                         ....  12
Number of internal coordinates          .... 124
Current Energy                          ....  -305.693716412 Eh
Current gradient norm                   ....     0.090554351 Eh/bohr
Maximum allowed component of the step   ....  0.300
Current trust radius                    ....  0.300
Resetting Hessian after 50 BFGS Update Steps....
Build internal Hessian                  .... (Almloef) done
Updating Hessian with the last 5 steps  .... done
Forming the augmented Hessian           .... done
Diagonalizing the augmented Hessian     .... done
Last element of RFO vector              ....  0.000172323
Lowest eigenvalues of augmented Hessian:
 -2.644391246 -0.013216329  0.000176887  0.002365740  0.003721444
Warning: RFO finds a terribly low value for the scaling factor
Trying a QUASI-NEWTON step instead
Doing a quasi-Newton Step:
Inverting the Hessian                   .... done
Computing the step                      .... done
Length of the computed step             ....  2.186678649
Warning: the length of the step is outside the trust region - QNStep is scaled down
Converting the step to cartesian space:
 Initial RMS(Int)=    0.0269407953
Transforming coordinates:
 Iter   0:  RMS(Cart)=    0.0423711545 RMS(Int)=    0.0268993620
 Iter   1:  RMS(Cart)=    0.0002257974 RMS(Int)=    0.0002452321
 Iter   2:  RMS(Cart)=    0.0000025771 RMS(Int)=    0.0000038788
 Iter   3:  RMS(Cart)=    0.0000000415 RMS(Int)=    0.0000000661
done
Storing new coordinates                 .... done

                                .--------------------.
          ----------------------|Geometry convergence|-------------------------
          Item                value                   Tolerance       Converged
          ---------------------------------------------------------------------
          Energy change      -0.0018184238            0.0000050000      NO
          RMS gradient        0.0021710755            0.0001000000      NO
          MAX gradient        0.0046006803            0.0003000000      NO
          RMS step            0.0269407953            0.0020000000      NO
          MAX step            0.1129680574            0.0040000000      NO
          ........................................................
          Max(Bonds)      0.0598      Max(Angles)    1.38
          Max(Dihed)        1.40      Max(Improp)    0.00
          ---------------------------------------------------------------------

The optimization has not yet converged - more geometry cycles are needed


    ---------------------------------------------------------------------------
                         Redundant Internal Coordinates
                            (Angstroem and degrees)

        Definition                    Value    dE/dq     Step     New-Value
    ----------------------------------------------------------------------------
     1. B(H   1,O   0)                0.9413 -0.003164  0.0020    0.9433   
     2. B(H   2,O   0)                0.9429  0.000028  0.0002    0.9432   
     3. B(O   3,H   1)                3.1245 -0.001371  0.0397    3.1642   
     4. B(H   4,H   1)                2.8219 -0.004600  0.0597    2.8816   
     5. B(H   4,O   3)                0.9413 -0.003162  0.0020    0.9433   
     6. B(H   5,O   3)                0.9429  0.000028  0.0002    0.9432   
     7. B(O   6,H   4)                3.1246 -0.001371  0.0397    3.1643   
     8. B(H   7,O   6)                0.9413 -0.003164  0.0020    0.9433   
     9. B(H   7,H   4)                2.8220 -0.004600  0.0598    2.8817   
    10. B(H   8,O   6)                0.9429  0.000028  0.0002    0.9432   
    11. B(O   9,H   7)                3.1246 -0.001371  0.0397    3.1642   
    12. B(H  10,O   9)                0.9413 -0.003162  0.0020    0.9433   
    13. B(H  10,H   1)                2.8219 -0.004600  0.0598    2.8817   
    14. B(H  10,O   0)                3.1245 -0.001371  0.0397    3.1642   
    15. B(H  10,H   7)                2.8219 -0.004601  0.0597    2.8817   
    16. B(H  11,O   9)                0.9429  0.000028  0.0002    0.9432   
    17. A(H   1,O   0,H  10)           62.83 -0.002189    1.38     64.22   
    18. A(H   2,O   0,H  10)          159.29 -0.001662   -0.34    158.95   
    19. A(H   1,O   0,H   2)          118.32  0.002192   -0.50    117.82   
    20. A(O   0,H   1,O   3)          154.57 -0.000991   -1.04    153.53   
    21. A(O   0,H   1,H  10)           99.90  0.002823   -1.25     98.65   
    22. A(O   0,H   1,H   4)          139.36 -0.000100   -0.80    138.56   
    23. A(H   4,H   1,H  10)           68.73 -0.002584    0.51     69.25   
    24. A(O   3,H   1,H   4)           17.26 -0.000633   -0.13     17.13   
    25. A(O   3,H   1,H  10)           65.95 -0.003474    0.52     66.47   
    26. A(H   1,O   3,H   4)           62.83 -0.002189    1.38     64.22   
    27. A(H   4,O   3,H   5)          118.32  0.002192   -0.50    117.82   
    28. A(H   1,O   3,H   5)          159.29 -0.001662   -0.34    158.95   
    29. A(O   3,H   4,H   7)          139.36 -0.000100   -0.80    138.56   
    30. A(O   6,H   4,H   7)           17.26 -0.000634   -0.13     17.13   
    31. A(H   1,H   4,H   7)           68.73 -0.002583    0.51     69.25   
    32. A(H   1,H   4,O   6)           65.95 -0.003474    0.52     66.47   
    33. A(O   3,H   4,O   6)          154.57 -0.000991   -1.04    153.53   
    34. A(H   1,H   4,O   3)           99.90  0.002822   -1.25     98.65   
    35. A(H   7,O   6,H   8)          118.32  0.002191   -0.50    117.82   
    36. A(H   4,O   6,H   8)          159.29 -0.001662   -0.34    158.95   
    37. A(H   4,O   6,H   7)           62.83 -0.002189    1.38     64.22   
    38. A(H   4,H   7,O   9)           65.95 -0.003474    0.52     66.47   
    39. A(O   6,H   7,O   9)          154.57 -0.000991   -1.04    153.53   
    40. A(H   4,H   7,O   6)           99.90  0.002822   -1.25     98.65   
    41. A(O   9,H   7,H  10)           17.26 -0.000633   -0.13     17.13   
    42. A(H   4,H   7,H  10)           68.73 -0.002584    0.51     69.24   
    43. A(O   6,H   7,H  10)          139.36 -0.000100   -0.80    138.56   
    44. A(H   7,O   9,H  11)          159.29 -0.001662   -0.34    158.95   
    45. A(H   7,O   9,H  10)           62.83 -0.002189    1.38     64.22   
    46. A(H  10,O   9,H  11)          118.32  0.002191   -0.50    117.82   
    47. A(O   0,H  10,O   9)          154.57 -0.000991   -1.04    153.53   
    48. A(O   0,H  10,H   1)           17.26 -0.000634   -0.13     17.13   
    49. A(H   1,H  10,O   9)          139.36 -0.000100   -0.80    138.56   
    50. A(H   1,H  10,H   7)           68.73 -0.002583    0.51     69.25   
    51. A(O   0,H  10,H   7)           65.95 -0.003474    0.52     66.47   
    52. A(H   7,H  10,O   9)           99.90  0.002822   -1.25     98.65   
    53. D(H  10,H   1,O   0,H   2)    156.60 -0.002366    0.01    156.61   
    54. D(O   3,H   1,O   0,H   2)    103.20 -0.001384    0.11    103.31   
    55. D(H   4,H   1,O   0,H   2)     87.82 -0.001703    0.37     88.19   
    56. D(O   3,H   1,O   0,H  10)    -53.40  0.000983    0.10    -53.30   
    57. D(H   4,H   1,O   0,H  10)    -68.78  0.000663    0.36    -68.42   
    58. D(H   4,O   3,H   1,O   0)    -35.60 -0.002374   -0.36    -35.96   
    59. D(H   4,O   3,H   1,H  10)    -95.60 -0.002942   -0.12    -95.72   
    60. D(H   5,O   3,H   1,H   4)     98.65  0.000711    1.40    100.05   
    61. D(H   5,O   3,H   1,O   0)     63.05 -0.001663    1.03     64.09   
    62. D(H   5,O   3,H   1,H  10)      3.05 -0.002231    1.28      4.33   
    63. D(O   6,H   4,H   1,O   3)   -157.82  0.001184    0.67   -157.14   
    64. D(O   3,H   4,H   1,H  10)     77.22 -0.003676    0.12     77.34   
    65. D(O   6,H   4,H   1,H  10)    -80.59 -0.002491    0.79    -79.80   
    66. D(O   6,H   4,H   1,O   0)     -0.39 -0.001012   -0.08     -0.47   
    67. D(H   7,H   4,O   3,H   1)     68.78 -0.000663   -0.36     68.42   
    68. D(O   6,H   4,O   3,H   1)     53.40 -0.000982   -0.10     53.30   
    69. D(O   6,H   4,O   3,H   5)   -103.20  0.001384   -0.11   -103.31   
    70. D(H   1,H   4,O   3,H   5)   -156.60  0.002366   -0.01   -156.61   
    71. D(H   7,H   4,H   1,O   3)   -139.34  0.000742    0.45   -138.89   
    72. D(H   7,H   4,H   1,H  10)    -62.12 -0.002934    0.57    -61.54   
    73. D(H   7,H   4,O   3,H   5)    -87.82  0.001703   -0.37    -88.19   
    74. D(O   3,H   4,H   1,O   0)    157.43 -0.002196   -0.76    156.67   
    75. D(H   7,H   4,H   1,O   0)     18.09 -0.001454   -0.30     17.79   
    76. D(H   8,O   6,H   4,H   1)     -3.05  0.002232   -1.28     -4.33   
    77. D(H   8,O   6,H   4,H   7)    -98.65 -0.000711   -1.40   -100.05   
    78. D(H   8,O   6,H   4,O   3)    -63.05  0.001663   -1.03    -64.09   
    79. D(H   7,O   6,H   4,H   1)     95.60  0.002943    0.12     95.72   
    80. D(H   7,O   6,H   4,O   3)     35.60  0.002375    0.36     35.96   
    81. D(O   6,H   7,H   4,O   3)   -157.43  0.002196    0.76   -156.67   
    82. D(O   6,H   7,H   4,H   1)    -77.22  0.003676   -0.12    -77.34   
    83. D(O   9,H   7,H   4,O   3)      0.39  0.001012    0.09      0.47   
    84. D(H  10,H   7,O   6,H   4)    -68.78  0.000663    0.36    -68.42   
    85. D(H  10,H   7,O   6,H   8)     87.82 -0.001703    0.37     88.19   
    86. D(O   9,H   7,O   6,H   8)    103.20 -0.001384    0.11    103.31   
    87. D(H   4,H   7,O   6,H   8)    156.60 -0.002366    0.01    156.61   
    88. D(H  10,H   7,H   4,O   6)    139.34 -0.000743   -0.45    138.89   
    89. D(H  10,H   7,H   4,H   1)     62.12  0.002934   -0.57     61.54   
    90. D(O   9,H   7,O   6,H   4)    -53.40  0.000983    0.10    -53.30   
    91. D(H  10,H   7,H   4,O   3)    -18.09  0.001454    0.31    -17.79   
    92. D(O   9,H   7,H   4,O   6)    157.82 -0.001184   -0.67    157.14   
    93. D(O   9,H   7,H   4,H   1)     80.59  0.002492   -0.79     79.80   
    94. D(H  11,O   9,H   7,H  10)     98.65  0.000711    1.40    100.05   
    95. D(H  11,O   9,H   7,H   4)      3.05 -0.002232    1.28      4.33   
    96. D(H  11,O   9,H   7,O   6)     63.05 -0.001663    1.03     64.09   
    97. D(H  10,O   9,H   7,H   4)    -95.60 -0.002943   -0.12    -95.72   
    98. D(H  10,O   9,H   7,O   6)    -35.60 -0.002374   -0.36    -35.96   
    99. D(O   0,H  10,H   7,O   6)     -0.39 -0.001012   -0.08     -0.47   
   100. D(O   9,H  10,H   7,H   4)     77.22 -0.003676    0.12     77.34   
   101. D(O   9,H  10,H   7,O   6)    157.43 -0.002196   -0.76    156.67   
   102. D(H   7,H  10,H   1,O   3)     80.59  0.002492   -0.79     79.80   
   103. D(H   7,H  10,H   1,O   0)    -77.22  0.003676   -0.12    -77.34   
   104. D(O   0,H  10,H   1,H   4)    139.34 -0.000742   -0.45    138.89   
   105. D(O   0,H  10,H   1,O   3)    157.82 -0.001184   -0.67    157.14   
   106. D(O   9,H  10,H   1,H   4)    -18.09  0.001454    0.31    -17.79   
   107. D(O   9,H  10,H   1,O   3)      0.39  0.001012    0.09      0.47   
   108. D(O   9,H  10,H   1,O   0)   -157.43  0.002196    0.76   -156.67   
   109. D(H   7,H  10,O   0,H   2)     -3.05  0.002232   -1.28     -4.33   
   110. D(H   7,H  10,H   1,H   4)     62.12  0.002934   -0.57     61.55   
   111. D(H   7,H  10,O   0,H   1)     95.60  0.002943    0.12     95.72   
   112. D(H   1,H  10,O   0,H   2)    -98.65 -0.000711   -1.40   -100.05   
   113. D(O   9,H  10,O   0,H   2)    -63.05  0.001663   -1.03    -64.09   
   114. D(O   0,H  10,H   7,H   4)    -80.59 -0.002491    0.79    -79.80   
   115. D(O   9,H  10,O   0,H   1)     35.60  0.002375    0.36     35.96   
   116. D(H   7,H  10,O   9,H  11)   -156.60  0.002366   -0.01   -156.61   
   117. D(H   1,H  10,O   9,H  11)    -87.82  0.001703   -0.37    -88.19   
   118. D(O   0,H  10,O   9,H   7)     53.40 -0.000982   -0.10     53.30   
   119. D(O   0,H  10,O   9,H  11)   -103.20  0.001384   -0.11   -103.31   
   120. D(H   1,H  10,H   7,O   9)   -139.34  0.000742    0.45   -138.89   
   121. D(H   1,H  10,H   7,H   4)    -62.12 -0.002934    0.57    -61.54   
   122. D(H   1,H  10,O   9,H   7)     68.78 -0.000663   -0.36     68.42   
   123. D(H   1,H  10,H   7,O   6)     18.09 -0.001454   -0.30     17.79   
   124. D(O   0,H  10,H   7,O   9)   -157.82  0.001184    0.67   -157.14   
    ----------------------------------------------------------------------------




    ----------------------------------------------------------------------------
                                   ERROR !!!
       The optimization did not converge but reached the maximum 
       number of optimization cycles.
       As a subsequent Frequencies calculation has been requested
       ORCA will abort at this point of the run.
       Please restart the calculation with the lowest energy geometry and/or
       a larger maxiter for the geometry optimization.
    ----------------------------------------------------------------------------


[file orca_main/run.cpp, line 10680]: ORCA finished with error return - aborting the run
[file orca_main/run.cpp, line 10680]: ORCA finished with error return - aborting the run
