
                                 *****************
                                 * O   R   C   A *
                                 *****************

           --- An Ab Initio, DFT and Semiempirical electronic structure package ---

                  #######################################################
                  #                        -***-                        #
                  #          Department of theory and spectroscopy      #
                  #               Directorship: Frank Neese             #
                  #        Max Planck Institute fuer Kohlenforschung    #
                  #                Kaiser Wilhelm Platz 1               #
                  #                 D-45470 Muelheim/Ruhr               #
                  #                      Germany                        #
                  #                                                     #
                  #                  All rights reserved                #
                  #                        -***-                        #
                  #######################################################


                         Program Version 4.2.0 -  RELEASE  -


 With contributions from (in alphabetic order):
   Daniel Aravena         : Magnetic Suceptibility
   Michael Atanasov       : Ab Initio Ligand Field Theory (pilot matlab implementation)
   Alexander A. Auer      : GIAO ZORA, VPT2
   Ute Becker             : Parallelization
   Giovanni Bistoni       : ED, misc. LED, open-shell LED, HFLED
   Martin Brehm           : Molecular dynamics
   Dmytro Bykov           : SCF Hessian
   Vijay G. Chilkuri      : MRCI spin determinant printing, contributions to CSF-ICE
   Dipayan Datta          : RHF DLPNO-CCSD density
   Achintya Kumar Dutta   : EOM-CC, STEOM-CC
   Dmitry Ganyushin       : Spin-Orbit,Spin-Spin,Magnetic field MRCI
   Miquel Garcia          : C-PCM Hessian, Gaussian charge scheme
   Yang Guo               : DLPNO-NEVPT2, CIM, IAO-localization
   Andreas Hansen         : Spin unrestricted coupled pair/coupled cluster methods
   Benjamin Helmich-Paris : CASSCF linear response (MC-RPA)
   Lee Huntington         : MR-EOM, pCC
   Robert Izsak           : Overlap fitted RIJCOSX, COSX-SCS-MP3, EOM
   Christian Kollmar      : KDIIS, OOCD, Brueckner-CCSD(T), CCSD density
   Simone Kossmann        : Meta GGA functionals, TD-DFT gradient, OOMP2, MP2 Hessian
   Martin Krupicka        : AUTO-CI
   Lucas Lang             : DCDCAS
   Dagmar Lenk            : GEPOL surface, SMD
   Dimitrios Liakos       : Extrapolation schemes; Compound Job, initial MDCI parallelization
   Dimitrios Manganas     : Further ROCIS development; embedding schemes
   Dimitrios Pantazis     : SARC Basis sets
   Taras Petrenko         : DFT Hessian,TD-DFT gradient, ASA, ECA, R-Raman, ABS, FL, XAS/XES, NRVS
   Peter Pinski           : DLPNO-MP2, DLPNO-MP2 Gradient
   Christoph Reimann      : Effective Core Potentials
   Marius Retegan         : Local ZFS, SOC
   Christoph Riplinger    : Optimizer, TS searches, QM/MM, DLPNO-CCSD(T), (RO)-DLPNO pert. Triples
   Tobias Risthaus        : Range-separated hybrids, TD-DFT gradient, RPA, STAB
   Michael Roemelt        : Original ROCIS implementation
   Masaaki Saitow         : Open-shell DLPNO-CCSD energy and density
   Barbara Sandhoefer     : DKH picture change effects
   Avijit Sen             : IP-ROCIS
   Kantharuban Sivalingam : CASSCF convergence, NEVPT2, FIC-MRCI
   Bernardo de Souza      : ESD, SOC TD-DFT
   Georgi Stoychev        : AutoAux, RI-MP2 NMR
   Willem Van den Heuvel  : Paramagnetic NMR
   Boris Wezisla          : Elementary symmetry handling
   Frank Wennmohs         : Technical directorship


 We gratefully acknowledge several colleagues who have allowed us to
 interface, adapt or use parts of their codes:
   Stefan Grimme, W. Hujo, H. Kruse,             : VdW corrections, initial TS optimization,
                  C. Bannwarth                     DFT functionals, gCP, sTDA/sTD-DF
   Ed Valeev, F. Pavosevic, A. Kumar             : LibInt (2-el integral package), F12 methods
   Garnet Chan, S. Sharma, J. Yang, R. Olivares  : DMRG
   Ulf Ekstrom                                   : XCFun DFT Library
   Mihaly Kallay                                 : mrcc  (arbitrary order and MRCC methods)
   Andreas Klamt, Michael Diedenhofen            : otool_cosmo (COSMO solvation model)
   Jiri Pittner, Ondrej Demel                    : Mk-CCSD
   Frank Weinhold                                : gennbo (NPA and NBO analysis)
   Christopher J. Cramer and Donald G. Truhlar   : smd solvation model
   Lars Goerigk                                  : TD-DFT with DH, B97 family of functionals
   V. Asgeirsson, H. Jonsson                     : NEB implementation
   FAccTs GmbH                                   : IRC, NEB, NEB-TS, Multilevel, MM, QM/MM, CI optimization
   S Lehtola, MJT Oliveira, MAL Marques          : LibXC Library


 Your calculation uses the libint2 library for the computation of 2-el integrals
 For citations please refer to: http://libint.valeyev.net

 Your ORCA version has been built with support for libXC version: 4.2.3
 For citations please refer to: https://tddft.org/programs/libxc/

 This ORCA versions uses:
   CBLAS   interface :  Fast vector & matrix operations
   LAPACKE interface :  Fast linear algebra routines
   SCALAPACK package :  Parallel linear algebra routines


Your calculation utilizes the atom-pairwise dispersion correction
with the Becke-Johnson damping scheme (D3BJ)
Cite in your paper:
S.Grimme, S.Ehrlich, L.Goerigk, J Comput Chem, (2011), 32, 1456–1465 
S.Grimme, J.Antony, S.Ehrlich and H.Krieg, J.Chem.Phys., 132, (2010), 154104 
   

----- Orbital basis set information -----
Your calculation utilizes the basis: aug-cc-pV(T+d)Z 
             Al - Ar: T.H. Dunning, Jr., K. A. Peterson and A. K. Wilson, J. Chem. Phys.
                      114, 9244 (2001)

----- AuxJ basis set information -----
Your calculation utilizes the auxiliary basis: def2/J
   F. Weigend, Phys. Chem. Chem. Phys. 8, 1057 (2006).

================================================================================
                                        WARNINGS
                       Please study these warnings very carefully!
================================================================================


WARNING: Geometry Optimization
  ===> : Switching off AutoStart
         For restart on a previous wavefunction, please use MOREAD

WARNING: The SCAN functional is very grid-sensitive!
         Use at least GRID5 and a higher intacc

INFO   : the flag for use of LIBINT has been found!

================================================================================
                                       INPUT FILE
================================================================================
NAME = 05_H2O_5.in
|  1> #
|  2> # 05_H2O_5 scanfunc/aug-cc-pvt(+d)z
|  3> #
|  4> ! scanfunc d3bj aug-cc-pvt(+d)z def2/j grid4 nofinalgrid opt xyzfile numfreq
|  5> 
|  6> *xyz 0 1
|  7> O	2.312927	0.150318	0.177415
|  8> O	0.864769	-2.137443	-0.15942
|  9> O	-1.781315	-1.498466	0.059758
| 10> O	-1.961951	1.234812	-0.062774
| 11> O	0.577396	2.241432	-0.075822
| 12> H	1.836849	-0.694236	0.04925
| 13> H	-0.089971	-1.943593	-0.076678
| 14> H	-1.915322	-0.530797	0.048103
| 15> H	-1.066728	1.628166	-0.074484
| 16> H	1.229463	1.522335	0.042111
| 17> H	2.825562	0.034681	0.978576
| 18> H	0.953988	-2.623745	-0.980296
| 19> H	-2.260123	-1.814802	0.826889
| 20> H	-2.472247	1.784461	0.533098
| 21> H	0.863928	2.71231	-0.859811
| 22> *
| 23> 
| 24> %maxcore 5000
| 25> 
| 26> %pal
| 27> nprocs 24
| 28> end
| 29> 
| 30> 
| 31>                          ****END OF INPUT****
================================================================================

                       *****************************
                       * Geometry Optimization Run *
                       *****************************

Geometry optimization settings:
Update method            Update   .... BFGS
Choice of coordinates    CoordSys .... Z-matrix Internals
Initial Hessian          InHess   .... Almoef's Model

Convergence Tolerances:
Energy Change            TolE     ....  5.0000e-06 Eh
Max. Gradient            TolMAXG  ....  3.0000e-04 Eh/bohr
RMS Gradient             TolRMSG  ....  1.0000e-04 Eh/bohr
Max. Displacement        TolMAXD  ....  4.0000e-03 bohr
RMS Displacement         TolRMSD  ....  2.0000e-03 bohr
Strict Convergence                ....  False
------------------------------------------------------------------------------
                        ORCA OPTIMIZATION COORDINATE SETUP
------------------------------------------------------------------------------

The optimization will be done in new redundant internal coordinates
Making redundant internal coordinates   ...  (new redundants) done
Evaluating the initial hessian          ...  (Almloef) done
Evaluating the coordinates              ...  done
Calculating the B-matrix                .... done
Calculating the G-matrix                .... done
Diagonalizing the G-matrix              .... done
The first mode is                       ....   20
The number of degrees of freedom        ....   39

    -----------------------------------------------------------------
                    Redundant Internal Coordinates


    -----------------------------------------------------------------
         Definition                    Initial Value    Approx d2E/dq
    -----------------------------------------------------------------
      1. B(H   5,O   0)                  0.9779         0.486810   
      2. B(H   5,O   1)                  1.7525         0.028285   
      3. B(H   6,O   2)                  1.7543         0.028105   
      4. B(H   6,O   1)                  0.9777         0.487172   
      5. B(H   7,O   2)                  0.9770         0.488525   
      6. B(H   7,O   3)                  1.7697         0.026555   
      7. B(H   8,O   4)                  1.7548         0.028051   
      8. B(H   8,O   3)                  0.9779         0.486865   
      9. B(H   9,O   0)                  1.7535         0.028187   
     10. B(H   9,O   4)                  0.9779         0.486946   
     11. B(H  10,O   0)                  0.9581         0.523528   
     12. B(H  11,O   1)                  0.9583         0.523266   
     13. B(H  12,O   2)                  0.9580         0.523739   
     14. B(H  13,O   3)                  0.9579         0.523976   
     15. B(H  14,O   4)                  0.9584         0.523087   
     16. A(H   9,O   0,H  10)          119.3112         0.209557   
     17. A(H   5,O   0,H   9)          111.3968         0.207590   
     18. A(H   5,O   0,H  10)          105.4158         0.318744   
     19. A(H   5,O   1,H   6)          111.6099         0.207702   
     20. A(H   5,O   1,H  11)          117.9216         0.209638   
     21. A(H   6,O   1,H  11)          105.3089         0.318757   
     22. A(H   7,O   2,H  12)          105.5483         0.318948   
     23. A(H   6,O   2,H  12)          117.4101         0.209489   
     24. A(H   6,O   2,H   7)          112.4976         0.207606   
     25. A(H   7,O   3,H  13)          123.1984         0.207964   
     26. A(H   8,O   3,H  13)          105.3267         0.318794   
     27. A(H   7,O   3,H   8)          112.2063         0.206002   
     28. A(H   9,O   4,H  14)          105.1062         0.318715   
     29. A(H   8,O   4,H  14)          116.9019         0.209403   
     30. A(H   8,O   4,H   9)          111.5732         0.207467   
     31. L(O   0,H   5,O   1,H   9, 2) 181.6716         0.207682   
     32. L(O   0,H   5,O   1,H   9, 1) 175.5995         0.207682   
     33. L(O   1,H   6,O   2,H   5, 2) 178.7819         0.207532   
     34. L(O   1,H   6,O   2,H   5, 1) 176.8415         0.207532   
     35. A(O   2,H   7,O   3)          173.0006         0.206092   
     36. L(O   3,H   8,O   4,H   7, 2) 180.5842         0.207463   
     37. L(O   3,H   8,O   4,H   7, 1) 176.7000         0.207463   
     38. L(O   0,H   9,O   4,H   8, 2) 183.5434         0.207597   
     39. L(O   0,H   9,O   4,H   8, 1) 176.1760         0.207597   
     40. D(H  11,O   1,O   0,H   9)    106.4348         0.001501   
     41. D(H   6,O   1,O   0,H   9)    -14.9279         0.001501   
     42. D(H   6,O   1,O   0,H  10)    114.8119         0.001501   
     43. D(H  11,O   1,O   0,H  10)   -123.8254         0.001501   
     44. D(H   7,O   2,O   1,H   5)     11.4802         0.001501   
     45. D(H  12,O   2,O   1,H  11)    120.8135         0.001501   
     46. D(H   7,O   2,O   1,H  11)   -116.8515         0.001501   
     47. D(H  12,O   2,O   1,H   5)   -110.8548         0.001501   
     48. D(H   9,O   4,O   3,H   7)     -3.7701         0.001501   
     49. D(H   9,O   4,O   3,H  13)    132.1214         0.001501   
     50. D(H   8,O   4,O   0,H  10)   -110.9981         0.001501   
     51. D(H   8,O   4,O   0,H   5)     11.9003         0.001501   
     52. D(H  14,O   4,O   0,H  10)    122.7980         0.001501   
     53. D(H  14,O   4,O   3,H  13)   -107.3675         0.001501   
     54. D(H  14,O   4,O   0,H   5)   -114.3036         0.001501   
     55. D(H  14,O   4,O   3,H   7)    116.7411         0.001501   
     56. D(O   2,H   7,O   3,H  13)   -152.6002         0.001881   
     57. D(O   2,H   7,O   3,H   8)    -25.1333         0.001881   
     58. D(O   3,H   7,O   2,H   6)     19.5321         0.294450   
     59. D(O   3,H   7,O   2,H  12)    148.7623         0.294450   
    -----------------------------------------------------------------

Number of atoms                         .... 15
Number of degrees of freedom            .... 59

         *************************************************************
         *                GEOMETRY OPTIMIZATION CYCLE   1            *
         *************************************************************
---------------------------------
CARTESIAN COORDINATES (ANGSTROEM)
---------------------------------
  O      2.312927    0.150318    0.177415
  O      0.864769   -2.137443   -0.159420
  O     -1.781315   -1.498466    0.059758
  O     -1.961951    1.234812   -0.062774
  O      0.577396    2.241432   -0.075822
  H      1.836849   -0.694236    0.049250
  H     -0.089971   -1.943593   -0.076678
  H     -1.915322   -0.530797    0.048103
  H     -1.066728    1.628166   -0.074484
  H      1.229463    1.522335    0.042111
  H      2.825562    0.034681    0.978576
  H      0.953988   -2.623745   -0.980296
  H     -2.260123   -1.814802    0.826889
  H     -2.472247    1.784461    0.533098
  H      0.863928    2.712310   -0.859811

----------------------------
CARTESIAN COORDINATES (A.U.)
----------------------------
  NO LB      ZA    FRAG     MASS         X           Y           Z
   0 O     8.0000    0    15.999    4.370799    0.284060    0.335266
   1 O     8.0000    0    15.999    1.634177   -4.039182   -0.301260
   2 O     8.0000    0    15.999   -3.366198   -2.831690    0.112926
   3 O     8.0000    0    15.999   -3.707550    2.333457   -0.118626
   4 O     8.0000    0    15.999    1.091120    4.235693   -0.143283
   5 H     1.0000    0     1.008    3.471142   -1.311916    0.093069
   6 H     1.0000    0     1.008   -0.170021   -3.672858   -0.144900
   7 H     1.0000    0     1.008   -3.619434   -1.003061    0.090901
   8 H     1.0000    0     1.008   -2.015824    3.076788   -0.140754
   9 H     1.0000    0     1.008    2.323348    2.876796    0.079578
  10 H     1.0000    0     1.008    5.339538    0.065538    1.849241
  11 H     1.0000    0     1.008    1.802776   -4.958159   -1.852491
  12 H     1.0000    0     1.008   -4.271013   -3.429479    1.562594
  13 H     1.0000    0     1.008   -4.671870    3.372143    1.007409
  14 H     1.0000    0     1.008    1.632587    5.125523   -1.624807

--------------------------------
INTERNAL COORDINATES (ANGSTROEM)
--------------------------------
 O      0   0   0     0.000000000000     0.00000000     0.00000000
 O      1   0   0     2.728455571071     0.00000000     0.00000000
 O      2   1   0     2.730950592242   107.94925627     0.00000000
 O      3   2   1     2.741979591610   107.06628089    13.09730221
 O      1   2   3     2.729277301984   107.06549532   344.98490806
 H      1   2   3     0.977930461856     2.93309900   181.59899752
 H      2   1   3     0.977728248883   109.97391047   359.38512925
 H      3   2   1     0.976973391979   111.32718232    11.52866055
 H      4   3   2     0.977900154998   109.94962754   354.18953913
 H      5   1   2     0.977854825824     2.96622939   156.26657087
 H      1   2   3     0.958136476143   106.61897896   115.42672130
 H      2   1   3     0.958272963482   118.80609298   120.74784289
 H      3   2   1     0.958026897807   118.11621857   249.19366164
 H      4   3   2     0.957903685764   125.39988308   227.11000997
 H      5   1   2     0.958366020907   105.20261475   244.80497783

---------------------------
INTERNAL COORDINATES (A.U.)
---------------------------
 O      0   0   0     0.000000000000     0.00000000     0.00000000
 O      1   0   0     5.156033797896     0.00000000     0.00000000
 O      2   1   0     5.160748704608   107.94925627     0.00000000
 O      3   2   1     5.181590492944   107.06628089    13.09730221
 O      1   2   3     5.157586644278   107.06549532   344.98490806
 H      1   2   3     1.848020750926     2.93309900   181.59899752
 H      2   1   3     1.847638623787   109.97391047   359.38512925
 H      3   2   1     1.846212150968   111.32718232    11.52866055
 H      4   3   2     1.847963479265   109.94962754   354.18953913
 H      5   1   2     1.847877819540     2.96622939   156.26657087
 H      1   2   3     1.810615538830   106.61897896   115.42672130
 H      2   1   3     1.810873462523   118.80609298   120.74784289
 H      3   2   1     1.810408465785   118.11621857   249.19366164
 H      4   3   2     1.810175628768   125.39988308   227.11000997
 H      5   1   2     1.811049315570   105.20261475   244.80497783

---------------------
BASIS SET INFORMATION
---------------------
There are 2 groups of distinct atoms

 Group   1 Type O   : 19s6p3d2f contracted to 5s4p3d2f pattern {88111/3111/111/11}
 Group   2 Type H   : 6s3p2d contracted to 4s3p2d pattern {3111/111/11}

Atom   0O    basis set group =>   1
Atom   1O    basis set group =>   1
Atom   2O    basis set group =>   1
Atom   3O    basis set group =>   1
Atom   4O    basis set group =>   1
Atom   5H    basis set group =>   2
Atom   6H    basis set group =>   2
Atom   7H    basis set group =>   2
Atom   8H    basis set group =>   2
Atom   9H    basis set group =>   2
Atom  10H    basis set group =>   2
Atom  11H    basis set group =>   2
Atom  12H    basis set group =>   2
Atom  13H    basis set group =>   2
Atom  14H    basis set group =>   2
---------------------------------
AUXILIARY/J BASIS SET INFORMATION
---------------------------------
There are 2 groups of distinct atoms

 Group   1 Type O   : 12s5p4d2f1g contracted to 6s4p3d1f1g pattern {711111/2111/211/2/1}
 Group   2 Type H   : 5s2p1d contracted to 3s1p1d pattern {311/2/1}

Atom   0O    basis set group =>   1
Atom   1O    basis set group =>   1
Atom   2O    basis set group =>   1
Atom   3O    basis set group =>   1
Atom   4O    basis set group =>   1
Atom   5H    basis set group =>   2
Atom   6H    basis set group =>   2
Atom   7H    basis set group =>   2
Atom   8H    basis set group =>   2
Atom   9H    basis set group =>   2
Atom  10H    basis set group =>   2
Atom  11H    basis set group =>   2
Atom  12H    basis set group =>   2
Atom  13H    basis set group =>   2
Atom  14H    basis set group =>   2


           ************************************************************
           *        Program running with 24 parallel MPI-processes    *
           *              working on a common directory               *
           ************************************************************
------------------------------------------------------------------------------
                           ORCA GTO INTEGRAL CALCULATION
                           -- RI-GTO INTEGRALS CHOSEN --
------------------------------------------------------------------------------

                         BASIS SET STATISTICS AND STARTUP INFO

Gaussian basis set:
 # of primitive gaussian shells          ...  260
 # of primitive gaussian functions       ...  580
 # of contracted shells                  ...  160
 # of contracted basis functions         ...  460
 Highest angular momentum                ...    3
 Maximum contraction depth               ...    8
Auxiliary gaussian basis set:
 # of primitive gaussian shells          ...  200
 # of primitive gaussian functions       ...  510
 # of contracted shells                  ...  125
 # of contracted aux-basis functions     ...  355
 Highest angular momentum                ...    4
 Maximum contraction depth               ...    7
Ratio of auxiliary to basis functions    ...  0.77
Integral package used                  ... LIBINT
 One Electron integrals                  ... done
 Ordering auxiliary basis shells         ... done
 Integral threshhold             Thresh  ...  2.500e-11
 Primitive cut-off               TCut    ...  2.500e-12
 Pre-screening matrix                    ... done
 Shell pair data                         ... 
 Ordering of the shell pairs             ... done (   0.002 sec) 12013 of 12880 pairs
 Determination of significant pairs      ... done (   0.000 sec)
 Creation of shell pair data             ... done (   0.001 sec)
 Storage of shell pair data              ... done (   0.015 sec)
 Shell pair data done in (   0.018 sec)
 Computing two index integrals           ... done
 Cholesky decomposition of the V-matrix  ... done


Timings:
 Total evaluation time                   ...   0.370 sec (  0.006 min)
 One electron matrix time                ...   0.090 sec (  0.002 min) = 24.3%
 Schwartz matrix evaluation time         ...   0.163 sec (  0.003 min) = 44.1%
 Two index repulsion integral time       ...   0.002 sec (  0.000 min) =  0.7%
 Cholesky decomposition of V             ...   0.074 sec (  0.001 min) = 19.9%
 Three index repulsion integral time     ...   0.000 sec (  0.000 min) =  0.0%



           ************************************************************
           *        Program running with 24 parallel MPI-processes    *
           *              working on a common directory               *
           ************************************************************
-------------------------------------------------------------------------------
                                 ORCA SCF
-------------------------------------------------------------------------------

------------
SCF SETTINGS
------------
Hamiltonian:
 Density Functional     Method          .... DFT(GTOs)
 Exchange Functional    Exchange        .... SCAN
 Correlation Functional Correlation     .... SCAN
 Gradients option       PostSCFGGA      .... off
   Density functional embedding theory  .... OFF
   NL short-range parameter             ....  6.400000
 RI-approximation to the Coulomb term is turned on
   Number of auxiliary basis functions  .... 355


General Settings:
 Integral files         IntName         .... 05_H2O_5
 Hartree-Fock type      HFTyp           .... RHF
 Total Charge           Charge          ....    0
 Multiplicity           Mult            ....    1
 Number of Electrons    NEL             ....   50
 Basis Dimension        Dim             ....  460
 Nuclear Repulsion      ENuc            ....    202.7548338254 Eh

Convergence Acceleration:
 DIIS                   CNVDIIS         .... on
   Start iteration      DIISMaxIt       ....    12
   Startup error        DIISStart       ....  0.200000
   # of expansion vecs  DIISMaxEq       ....     5
   Bias factor          DIISBfac        ....   1.050
   Max. coefficient     DIISMaxC        ....  10.000
 Newton-Raphson         CNVNR           .... off
 SOSCF                  CNVSOSCF        .... on
   Start iteration      SOSCFMaxIt      ....   150
   Startup grad/error   SOSCFStart      ....  0.003300
 Level Shifting         CNVShift        .... on
   Level shift para.    LevelShift      ....    0.2500
   Turn off err/grad.   ShiftErr        ....    0.0010
 Zerner damping         CNVZerner       .... off
 Static damping         CNVDamp         .... on
   Fraction old density DampFac         ....    0.7000
   Max. Damping (<1)    DampMax         ....    0.9800
   Min. Damping (>=0)   DampMin         ....    0.0000
   Turn off err/grad.   DampErr         ....    0.1000
 Fernandez-Rico         CNVRico         .... off

SCF Procedure:
 Maximum # iterations   MaxIter         ....   125
 SCF integral mode      SCFMode         .... Direct
   Integral package                     .... LIBINT
 Reset frequency        DirectResetFreq ....    20
 Integral Threshold     Thresh          ....  2.500e-11 Eh
 Primitive CutOff       TCut            ....  2.500e-12 Eh

Convergence Tolerance:
 Convergence Check Mode ConvCheckMode   .... Total+1el-Energy
 Convergence forced     ConvForced      .... 0
 Energy Change          TolE            ....  1.000e-08 Eh
 1-El. energy change                    ....  1.000e-05 Eh
 Orbital Gradient       TolG            ....  1.000e-05
 Orbital Rotation angle TolX            ....  1.000e-05
 DIIS Error             TolErr          ....  5.000e-07


Diagonalization of the overlap matrix:
Smallest eigenvalue                        ... 1.108e-04
Time for diagonalization                   ...    0.028 sec
Threshold for overlap eigenvalues          ... 1.000e-08
Number of eigenvalues below threshold      ... 0
Time for construction of square roots      ...    0.026 sec
Total time needed                          ...    0.055 sec

-------------------
DFT GRID GENERATION
-------------------

General Integration Accuracy     IntAcc      ...  4.670
Radial Grid Type                 RadialGrid  ... Gauss-Chebyshev
Angular Grid (max. acc.)         AngularGrid ... Lebedev-302
Angular grid pruning method      GridPruning ... 3 (G Style)
Weight generation scheme         WeightScheme... Becke
Basis function cutoff            BFCut       ...    1.0000e-11
Integration weight cutoff        WCut        ...    1.0000e-14
Grids for H and He will be reduced by one unit

# of grid points (after initial pruning)     ...  65000 (   0.0 sec)
# of grid points (after weights+screening)   ...  61006 (   0.0 sec)
nearest neighbour list constructed           ...    0.0 sec
Grid point re-assignment to atoms done       ...    0.0 sec
Grid point division into batches done        ...    0.2 sec
Reduced shell lists constructed in    0.2 sec

Total number of grid points                  ...    61006
Total number of batches                      ...      960
Average number of points per batch           ...       63
Average number of grid points per atom       ...     4067
Average number of shells per batch           ...   106.54 (66.59%)
Average number of basis functions per batch  ...   293.37 (63.78%)
Average number of large shells per batch     ...    85.71 (80.45%)
Average number of large basis fcns per batch ...   229.17 (78.12%)
Maximum spatial batch extension              ...  11.76, 10.65,  8.33 au
Average spatial batch extension              ...   0.09,  0.09,  0.08 au

Time for grid setup =    0.256 sec

------------------------------
INITIAL GUESS: MODEL POTENTIAL
------------------------------
Loading Hartree-Fock densities                     ... done
Calculating cut-offs                               ... done
Setting up the integral package                    ... done
Initializing the effective Hamiltonian             ... done
Starting the Coulomb interaction                   ... done (   0.0 sec)
Reading the grid                                   ... done
Mapping shells                                     ... done
Starting the XC term evaluation                    ... done (   0.1 sec)
  promolecular density results
     # of electrons  =     49.994577283
     EX              =    -48.262338585
     EC              =     -0.802864210
     EX+EC           =    -49.065202795
Transforming the Hamiltonian                       ... done (   0.0 sec)
Diagonalizing the Hamiltonian                      ... done (   0.0 sec)
Back transforming the eigenvectors                 ... done (   0.0 sec)
Now organizing SCF variables                       ... done
                      ------------------
                      INITIAL GUESS DONE (   0.5 sec)
                      ------------------
--------------
SCF ITERATIONS
--------------
ITER       Energy         Delta-E        Max-DP      RMS-DP      [F,P]     Damp
               ***  Starting incremental Fock matrix formation  ***
  0   -381.1448008188   0.000000000000 0.07112202  0.00115559  0.5540208 0.7000
  1   -381.6749516872  -0.530150868477 0.03044755  0.00057255  0.2234268 0.7000
                               ***Turning on DIIS***
  2   -381.8343828148  -0.159431127591 0.03801382  0.00068245  0.0568618 0.0000
  3   -382.1360116170  -0.301628802143 0.00540640  0.00011787  0.1194337 0.7000
  4   -382.1573108794  -0.021299262443 0.01760699  0.00038081  0.0904694 0.0000
                      *** Initiating the SOSCF procedure ***
                           *** Shutting down DIIS ***
                      *** Re-Reading the Fockian *** 
                      *** Removing any level shift *** 
ITER      Energy       Delta-E        Grad      Rot      Max-DP    RMS-DP
  5   -382.19432757  -0.0370166886  0.001019  0.001019  0.004550  0.000065
               *** Restarting incremental Fock matrix formation ***
  6   -382.19449335  -0.0001657866  0.000431  0.001153  0.003569  0.000052
  7   -382.19451553  -0.0000221794  0.000205  0.000424  0.000834  0.000013
  8   -382.19451763  -0.0000020972  0.000176  0.000280  0.000893  0.000012
  9   -382.19452059  -0.0000029588  0.000054  0.000062  0.000126  0.000002
 10   -382.19452079  -0.0000002047  0.000024  0.000046  0.000110  0.000002
 11   -382.19452088  -0.0000000849  0.000011  0.000016  0.000046  0.000001
 12   -382.19452088  -0.0000000045  0.000012  0.000010  0.000027  0.000000
                  ***Gradient check signals convergence***
              ***Rediagonalizing the Fockian in SOSCF/NRSCF***

               *****************************************************
               *                     SUCCESS                       *
               *           SCF CONVERGED AFTER  13 CYCLES          *
               *****************************************************


----------------
TOTAL SCF ENERGY
----------------

Total Energy       :         -382.19452090 Eh          -10400.04164 eV

Components:
Nuclear Repulsion  :          202.75483383 Eh            5517.23952 eV
Electronic Energy  :         -584.94935472 Eh          -15917.28116 eV
One Electron Energy:         -929.13217018 Eh          -25282.97171 eV
Two Electron Energy:          344.18281546 Eh            9365.69055 eV

Virial components:
Potential Energy   :         -762.36713227 Eh          -20745.06433 eV
Kinetic Energy     :          380.17261138 Eh           10345.02269 eV
Virial Ratio       :            2.00531840


DFT components:
N(Alpha)           :       24.999844772265 electrons
N(Beta)            :       24.999844772265 electrons
N(Total)           :       49.999689544530 electrons
E(X)               :      -44.931975876271 Eh       
E(C)               :       -1.614976640492 Eh       
E(XC)              :      -46.546952516763 Eh       
DFET-embed. en.    :        0.000000000000 Eh       

---------------
SCF CONVERGENCE
---------------

  Last Energy change         ...   -1.2892e-08  Tolerance :   1.0000e-08
  Last MAX-Density change    ...    2.3579e-06  Tolerance :   1.0000e-07
  Last RMS-Density change    ...    4.2218e-08  Tolerance :   5.0000e-09
  Last Orbital Gradient      ...    2.9348e-07  Tolerance :   1.0000e-05
  Last Orbital Rotation      ...    8.2905e-07  Tolerance :   1.0000e-05

             **** THE GBW FILE WAS UPDATED (05_H2O_5.gbw) ****
             **** DENSITY FILE WAS UPDATED (05_H2O_5.scfp) ****
             **** ENERGY FILE WAS UPDATED (05_H2O_5.en.tmp) ****
             **** THE GBW FILE WAS UPDATED (05_H2O_5.gbw) ****
             **** DENSITY FILE WAS UPDATED (05_H2O_5.scfp) ****
----------------
ORBITAL ENERGIES
----------------

  NO   OCC          E(Eh)            E(eV) 
   0   2.0000     -18.957550      -515.8612 
   1   2.0000     -18.956310      -515.8274 
   2   2.0000     -18.955989      -515.8187 
   3   2.0000     -18.955804      -515.8137 
   4   2.0000     -18.955397      -515.8026 
   5   2.0000      -0.987542       -26.8724 
   6   2.0000      -0.979418       -26.6513 
   7   2.0000      -0.978694       -26.6316 
   8   2.0000      -0.965318       -26.2676 
   9   2.0000      -0.964474       -26.2447 
  10   2.0000      -0.501787       -13.6543 
  11   2.0000      -0.497718       -13.5436 
  12   2.0000      -0.495812       -13.4917 
  13   2.0000      -0.493019       -13.4157 
  14   2.0000      -0.491574       -13.3764 
  15   2.0000      -0.391329       -10.6486 
  16   2.0000      -0.388563       -10.5733 
  17   2.0000      -0.351313        -9.5597 
  18   2.0000      -0.349168        -9.5013 
  19   2.0000      -0.324194        -8.8218 
  20   2.0000      -0.285508        -7.7691 
  21   2.0000      -0.282264        -7.6808 
  22   2.0000      -0.280934        -7.6446 
  23   2.0000      -0.280086        -7.6215 
  24   2.0000      -0.275866        -7.5067 
  25   0.0000      -0.017703        -0.4817 
  26   0.0000       0.006517         0.1773 
  27   0.0000       0.008914         0.2426 
  28   0.0000       0.023399         0.6367 
  29   0.0000       0.031666         0.8617 
  30   0.0000       0.051731         1.4077 
  31   0.0000       0.052279         1.4226 
  32   0.0000       0.057674         1.5694 
  33   0.0000       0.062196         1.6924 
  34   0.0000       0.075233         2.0472 
  35   0.0000       0.091623         2.4932 
  36   0.0000       0.096494         2.6257 
  37   0.0000       0.098311         2.6752 
  38   0.0000       0.100282         2.7288 
  39   0.0000       0.111235         3.0268 
  40   0.0000       0.113474         3.0878 
  41   0.0000       0.121967         3.3189 
  42   0.0000       0.127653         3.4736 
  43   0.0000       0.143015         3.8916 
  44   0.0000       0.150493         4.0951 
  45   0.0000       0.152178         4.1410 
  46   0.0000       0.153923         4.1885 
  47   0.0000       0.167737         4.5643 
  48   0.0000       0.169951         4.6246 
  49   0.0000       0.177510         4.8303 
  50   0.0000       0.182075         4.9545 
  51   0.0000       0.188385         5.1262 
  52   0.0000       0.191704         5.2165 
  53   0.0000       0.199803         5.4369 
  54   0.0000       0.206929         5.6308 
  55   0.0000       0.213616         5.8128 
  56   0.0000       0.215854         5.8737 
  57   0.0000       0.218392         5.9427 
  58   0.0000       0.236757         6.4425 
  59   0.0000       0.238423         6.4878 
  60   0.0000       0.249751         6.7961 
  61   0.0000       0.267270         7.2728 
  62   0.0000       0.276888         7.5345 
  63   0.0000       0.279281         7.5996 
  64   0.0000       0.285169         7.7598 
  65   0.0000       0.289112         7.8671 
  66   0.0000       0.290519         7.9054 
  67   0.0000       0.304561         8.2875 
  68   0.0000       0.316655         8.6166 
  69   0.0000       0.320869         8.7313 
  70   0.0000       0.325288         8.8515 
  71   0.0000       0.331376         9.0172 
  72   0.0000       0.339314         9.2332 
  73   0.0000       0.345567         9.4034 
  74   0.0000       0.348239         9.4761 
  75   0.0000       0.351151         9.5553 
  76   0.0000       0.354991         9.6598 
  77   0.0000       0.355668         9.6782 
  78   0.0000       0.362390         9.8611 
  79   0.0000       0.372997        10.1498 
  80   0.0000       0.377164        10.2631 
  81   0.0000       0.380566        10.3557 
  82   0.0000       0.384375        10.4594 
  83   0.0000       0.388892        10.5823 
  84   0.0000       0.398771        10.8511 
  85   0.0000       0.404207        10.9990 
  86   0.0000       0.410593        11.1728 
  87   0.0000       0.415010        11.2930 
  88   0.0000       0.421130        11.4595 
  89   0.0000       0.424251        11.5444 
  90   0.0000       0.470315        12.7979 
  91   0.0000       0.477707        12.9991 
  92   0.0000       0.485217        13.2034 
  93   0.0000       0.491847        13.3838 
  94   0.0000       0.504000        13.7145 
  95   0.0000       0.507108        13.7991 
  96   0.0000       0.539711        14.6863 
  97   0.0000       0.552380        15.0310 
  98   0.0000       0.559478        15.2242 
  99   0.0000       0.584699        15.9105 
 100   0.0000       0.590117        16.0579 
 101   0.0000       0.602390        16.3919 
 102   0.0000       0.606058        16.4917 
 103   0.0000       0.608384        16.5550 
 104   0.0000       0.636530        17.3209 
 105   0.0000       0.641920        17.4675 
 106   0.0000       0.660644        17.9770 
 107   0.0000       0.675488        18.3810 
 108   0.0000       0.679961        18.5027 
 109   0.0000       0.683175        18.5901 
 110   0.0000       0.695980        18.9386 
 111   0.0000       0.703611        19.1462 
 112   0.0000       0.715274        19.4636 
 113   0.0000       0.719950        19.5908 
 114   0.0000       0.743384        20.2285 
 115   0.0000       0.748564        20.3694 
 116   0.0000       0.755884        20.5687 
 117   0.0000       0.763950        20.7881 
 118   0.0000       0.772065        21.0090 
 119   0.0000       0.783690        21.3253 
 120   0.0000       0.793546        21.5935 
 121   0.0000       0.807363        21.9695 
 122   0.0000       0.810340        22.0505 
 123   0.0000       0.822887        22.3919 
 124   0.0000       0.826946        22.5023 
 125   0.0000       0.832920        22.6649 
 126   0.0000       0.843543        22.9540 
 127   0.0000       0.852646        23.2017 
 128   0.0000       0.855725        23.2855 
 129   0.0000       0.862496        23.4697 
 130   0.0000       0.867472        23.6051 
 131   0.0000       0.872057        23.7299 
 132   0.0000       0.872959        23.7544 
 133   0.0000       0.880207        23.9517 
 134   0.0000       0.889654        24.2087 
 135   0.0000       0.894616        24.3437 
 136   0.0000       0.899865        24.4866 
 137   0.0000       0.905899        24.6508 
 138   0.0000       0.915369        24.9085 
 139   0.0000       0.937953        25.5230 
 140   0.0000       0.943879        25.6843 
 141   0.0000       0.959063        26.0974 
 142   0.0000       0.960991        26.1499 
 143   0.0000       0.966234        26.2926 
 144   0.0000       0.977767        26.6064 
 145   0.0000       0.996834        27.1252 
 146   0.0000       1.007373        27.4120 
 147   0.0000       1.011761        27.5314 
 148   0.0000       1.016943        27.6724 
 149   0.0000       1.022160        27.8144 
 150   0.0000       1.067229        29.0408 
 151   0.0000       1.069200        29.0944 
 152   0.0000       1.070408        29.1273 
 153   0.0000       1.076332        29.2885 
 154   0.0000       1.083147        29.4739 
 155   0.0000       1.092045        29.7161 
 156   0.0000       1.107329        30.1320 
 157   0.0000       1.114617        30.3303 
 158   0.0000       1.131818        30.7983 
 159   0.0000       1.135612        30.9016 
 160   0.0000       1.140724        31.0407 
 161   0.0000       1.147416        31.2228 
 162   0.0000       1.156599        31.4727 
 163   0.0000       1.172213        31.8975 
 164   0.0000       1.176720        32.0202 
 165   0.0000       1.192352        32.4455 
 166   0.0000       1.197737        32.5921 
 167   0.0000       1.206958        32.8430 
 168   0.0000       1.225652        33.3517 
 169   0.0000       1.228797        33.4373 
 170   0.0000       1.236094        33.6358 
 171   0.0000       1.241729        33.7892 
 172   0.0000       1.253900        34.1204 
 173   0.0000       1.257401        34.2156 
 174   0.0000       1.274076        34.6694 
 175   0.0000       1.276225        34.7279 
 176   0.0000       1.289401        35.0864 
 177   0.0000       1.296185        35.2710 
 178   0.0000       1.306355        35.5477 
 179   0.0000       1.318133        35.8682 
 180   0.0000       1.350153        36.7395 
 181   0.0000       1.361012        37.0350 
 182   0.0000       1.367653        37.2157 
 183   0.0000       1.374609        37.4050 
 184   0.0000       1.408601        38.3300 
 185   0.0000       1.412275        38.4299 
 186   0.0000       1.425236        38.7826 
 187   0.0000       1.438621        39.1469 
 188   0.0000       1.449202        39.4348 
 189   0.0000       1.464202        39.8430 
 190   0.0000       1.474273        40.1170 
 191   0.0000       1.476397        40.1748 
 192   0.0000       1.496715        40.7277 
 193   0.0000       1.528727        41.5988 
 194   0.0000       1.549507        42.1642 
 195   0.0000       1.562287        42.5120 
 196   0.0000       1.574686        42.8494 
 197   0.0000       1.593567        43.3632 
 198   0.0000       1.601837        43.5882 
 199   0.0000       1.609862        43.8066 
 200   0.0000       1.624772        44.2123 
 201   0.0000       1.649439        44.8835 
 202   0.0000       1.655535        45.0494 
 203   0.0000       1.665521        45.3211 
 204   0.0000       1.672688        45.5162 
 205   0.0000       1.680441        45.7271 
 206   0.0000       1.684746        45.8443 
 207   0.0000       1.709934        46.5297 
 208   0.0000       1.724615        46.9292 
 209   0.0000       1.739487        47.3339 
 210   0.0000       1.754151        47.7329 
 211   0.0000       1.766888        48.0795 
 212   0.0000       1.781850        48.4866 
 213   0.0000       1.833778        49.8996 
 214   0.0000       1.848696        50.3056 
 215   0.0000       1.869448        50.8703 
 216   0.0000       1.876353        51.0582 
 217   0.0000       1.890066        51.4313 
 218   0.0000       1.913508        52.0692 
 219   0.0000       1.921974        52.2996 
 220   0.0000       1.979314        53.8599 
 221   0.0000       1.982926        53.9581 
 222   0.0000       1.996528        54.3283 
 223   0.0000       2.035342        55.3845 
 224   0.0000       2.036886        55.4265 
 225   0.0000       2.095854        57.0311 
 226   0.0000       2.174285        59.1653 
 227   0.0000       2.177724        59.2589 
 228   0.0000       2.183794        59.4241 
 229   0.0000       2.192772        59.6684 
 230   0.0000       2.202573        59.9351 
 231   0.0000       2.219565        60.3974 
 232   0.0000       2.225913        60.5702 
 233   0.0000       2.268764        61.7362 
 234   0.0000       2.285665        62.1961 
 235   0.0000       2.295981        62.4768 
 236   0.0000       2.309467        62.8438 
 237   0.0000       2.310227        62.8645 
 238   0.0000       2.321881        63.1816 
 239   0.0000       2.332192        63.4622 
 240   0.0000       2.347361        63.8749 
 241   0.0000       2.350459        63.9592 
 242   0.0000       2.363775        64.3216 
 243   0.0000       2.377903        64.7060 
 244   0.0000       2.392280        65.0972 
 245   0.0000       2.402861        65.3852 
 246   0.0000       2.409652        65.5700 
 247   0.0000       2.419862        65.8478 
 248   0.0000       2.444416        66.5159 
 249   0.0000       2.461856        66.9905 
 250   0.0000       2.477914        67.4275 
 251   0.0000       2.497315        67.9554 
 252   0.0000       2.499337        68.0104 
 253   0.0000       2.516382        68.4742 
 254   0.0000       2.529520        68.8317 
 255   0.0000       2.560225        69.6673 
 256   0.0000       2.574495        70.0556 
 257   0.0000       2.580214        70.2112 
 258   0.0000       2.592263        70.5391 
 259   0.0000       2.598082        70.6974 
 260   0.0000       2.622381        71.3586 
 261   0.0000       2.640561        71.8533 
 262   0.0000       2.662747        72.4570 
 263   0.0000       2.675075        72.7925 
 264   0.0000       2.677919        72.8699 
 265   0.0000       2.695052        73.3361 
 266   0.0000       2.719200        73.9932 
 267   0.0000       2.723374        74.1068 
 268   0.0000       2.754720        74.9597 
 269   0.0000       2.757860        75.0452 
 270   0.0000       2.781070        75.6768 
 271   0.0000       2.784896        75.7809 
 272   0.0000       2.790313        75.9283 
 273   0.0000       2.803697        76.2925 
 274   0.0000       2.835498        77.1578 
 275   0.0000       2.852914        77.6317 
 276   0.0000       2.869500        78.0831 
 277   0.0000       2.876380        78.2703 
 278   0.0000       2.881611        78.4126 
 279   0.0000       2.907170        79.1081 
 280   0.0000       2.916438        79.3603 
 281   0.0000       2.946400        80.1756 
 282   0.0000       2.964664        80.6726 
 283   0.0000       2.991339        81.3985 
 284   0.0000       3.008425        81.8634 
 285   0.0000       3.030608        82.4670 
 286   0.0000       3.041911        82.7746 
 287   0.0000       3.057766        83.2060 
 288   0.0000       3.068865        83.5081 
 289   0.0000       3.115094        84.7660 
 290   0.0000       3.665031        99.7306 
 291   0.0000       3.675736       100.0219 
 292   0.0000       3.698314       100.6362 
 293   0.0000       3.699666       100.6730 
 294   0.0000       3.711601       100.9978 
 295   0.0000       3.914841       106.5282 
 296   0.0000       3.933949       107.0482 
 297   0.0000       3.945130       107.3524 
 298   0.0000       3.959517       107.7439 
 299   0.0000       3.965534       107.9077 
 300   0.0000       3.996091       108.7392 
 301   0.0000       4.006625       109.0258 
 302   0.0000       4.008863       109.0867 
 303   0.0000       4.018290       109.3432 
 304   0.0000       4.027933       109.6056 
 305   0.0000       4.074749       110.8795 
 306   0.0000       4.099769       111.5604 
 307   0.0000       4.100312       111.5752 
 308   0.0000       4.107440       111.7691 
 309   0.0000       4.119467       112.0964 
 310   0.0000       4.124960       112.2459 
 311   0.0000       4.128303       112.3368 
 312   0.0000       4.145248       112.7979 
 313   0.0000       4.154435       113.0479 
 314   0.0000       4.172296       113.5339 
 315   0.0000       4.188462       113.9738 
 316   0.0000       4.190881       114.0397 
 317   0.0000       4.200551       114.3028 
 318   0.0000       4.232580       115.1744 
 319   0.0000       4.256410       115.8228 
 320   0.0000       4.329755       117.8186 
 321   0.0000       4.344472       118.2191 
 322   0.0000       4.350541       118.3842 
 323   0.0000       4.364165       118.7550 
 324   0.0000       4.368111       118.8623 
 325   0.0000       4.401452       119.7696 
 326   0.0000       4.413922       120.1089 
 327   0.0000       4.427284       120.4725 
 328   0.0000       4.438829       120.7867 
 329   0.0000       4.451146       121.1218 
 330   0.0000       4.455406       121.2378 
 331   0.0000       4.474349       121.7532 
 332   0.0000       4.480007       121.9072 
 333   0.0000       4.489494       122.1653 
 334   0.0000       4.499832       122.4467 
 335   0.0000       4.510424       122.7349 
 336   0.0000       4.534132       123.3800 
 337   0.0000       4.545018       123.6762 
 338   0.0000       4.553302       123.9017 
 339   0.0000       4.556671       123.9933 
 340   0.0000       4.563186       124.1706 
 341   0.0000       4.577897       124.5709 
 342   0.0000       4.595155       125.0405 
 343   0.0000       4.603647       125.2716 
 344   0.0000       4.633431       126.0821 
 345   0.0000       4.707596       128.1002 
 346   0.0000       4.730079       128.7120 
 347   0.0000       4.757601       129.4609 
 348   0.0000       4.760737       129.5462 
 349   0.0000       4.780302       130.0786 
 350   0.0000       4.871882       132.5706 
 351   0.0000       4.878712       132.7565 
 352   0.0000       4.894504       133.1862 
 353   0.0000       4.938973       134.3963 
 354   0.0000       4.943202       134.5114 
 355   0.0000       4.999454       136.0421 
 356   0.0000       5.012399       136.3943 
 357   0.0000       5.027961       136.8178 
 358   0.0000       5.041610       137.1892 
 359   0.0000       5.085497       138.3834 
 360   0.0000       5.102173       138.8372 
 361   0.0000       5.111255       139.0843 
 362   0.0000       5.142699       139.9399 
 363   0.0000       5.186516       141.1323 
 364   0.0000       5.195943       141.3888 
 365   0.0000       5.205174       141.6400 
 366   0.0000       5.212227       141.8319 
 367   0.0000       5.226580       142.2225 
 368   0.0000       5.233326       142.4060 
 369   0.0000       5.254723       142.9883 
 370   0.0000       5.273814       143.5078 
 371   0.0000       5.287899       143.8911 
 372   0.0000       5.326762       144.9486 
 373   0.0000       5.343745       145.4107 
 374   0.0000       5.345257       145.4518 
 375   0.0000       5.418541       147.4460 
 376   0.0000       5.463830       148.6784 
 377   0.0000       5.499554       149.6505 
 378   0.0000       5.528630       150.4417 
 379   0.0000       5.556469       151.1992 
 380   0.0000       5.683258       154.6493 
 381   0.0000       5.696789       155.0175 
 382   0.0000       5.730190       155.9264 
 383   0.0000       5.734359       156.0398 
 384   0.0000       5.774076       157.1206 
 385   0.0000       6.142631       167.1495 
 386   0.0000       6.162978       167.7032 
 387   0.0000       6.181838       168.2164 
 388   0.0000       6.191937       168.4912 
 389   0.0000       6.203848       168.8153 
 390   0.0000       6.298330       171.3863 
 391   0.0000       6.310870       171.7275 
 392   0.0000       6.312590       171.7743 
 393   0.0000       6.317386       171.9048 
 394   0.0000       6.322228       172.0366 
 395   0.0000       6.620668       180.1575 
 396   0.0000       6.629097       180.3869 
 397   0.0000       6.660960       181.2539 
 398   0.0000       6.674262       181.6159 
 399   0.0000       6.691558       182.0866 
 400   0.0000       6.699217       182.2950 
 401   0.0000       6.721985       182.9145 
 402   0.0000       6.777909       184.4363 
 403   0.0000       6.790399       184.7762 
 404   0.0000       6.839349       186.1081 
 405   0.0000       6.935031       188.7118 
 406   0.0000       6.958426       189.3484 
 407   0.0000       6.979399       189.9191 
 408   0.0000       6.986434       190.1105 
 409   0.0000       6.988022       190.1537 
 410   0.0000       7.009056       190.7261 
 411   0.0000       7.018422       190.9810 
 412   0.0000       7.021393       191.0618 
 413   0.0000       7.029903       191.2934 
 414   0.0000       7.044676       191.6954 
 415   0.0000       7.062940       192.1924 
 416   0.0000       7.082275       192.7185 
 417   0.0000       7.094809       193.0596 
 418   0.0000       7.101848       193.2511 
 419   0.0000       7.123691       193.8455 
 420   0.0000       7.131403       194.0553 
 421   0.0000       7.142676       194.3621 
 422   0.0000       7.154206       194.6758 
 423   0.0000       7.177270       195.3034 
 424   0.0000       7.181341       195.4142 
 425   0.0000       7.195798       195.8076 
 426   0.0000       7.210813       196.2162 
 427   0.0000       7.224100       196.5777 
 428   0.0000       7.249970       197.2817 
 429   0.0000       7.261173       197.5866 
 430   0.0000       7.277383       198.0277 
 431   0.0000       7.311005       198.9426 
 432   0.0000       7.330566       199.4748 
 433   0.0000       7.388147       201.0417 
 434   0.0000       7.394858       201.2243 
 435   0.0000       7.535656       205.0556 
 436   0.0000       7.537505       205.1059 
 437   0.0000       7.581853       206.3127 
 438   0.0000       7.600971       206.8329 
 439   0.0000       7.612306       207.1414 
 440   0.0000       7.768994       211.4051 
 441   0.0000       7.772763       211.5076 
 442   0.0000       7.782198       211.7644 
 443   0.0000       7.785177       211.8454 
 444   0.0000       7.792727       212.0509 
 445   0.0000       7.798633       212.2116 
 446   0.0000       7.823909       212.8994 
 447   0.0000       7.883503       214.5210 
 448   0.0000       7.896812       214.8832 
 449   0.0000       7.987962       217.3635 
 450   0.0000       8.695227       236.6091 
 451   0.0000       8.713618       237.1096 
 452   0.0000       8.721810       237.3325 
 453   0.0000       8.738327       237.7820 
 454   0.0000       8.780066       238.9178 
 455   0.0000      15.624091       425.1531 
 456   0.0000      16.245759       442.0696 
 457   0.0000      16.309040       443.7915 
 458   0.0000      17.214765       468.4376 
 459   0.0000      17.239892       469.1213 

                    ********************************
                    * MULLIKEN POPULATION ANALYSIS *
                    ********************************

-----------------------
MULLIKEN ATOMIC CHARGES
-----------------------
   0 O :   -0.428783
   1 O :   -0.421813
   2 O :   -0.418104
   3 O :   -0.439205
   4 O :   -0.417614
   5 H :    0.263599
   6 H :    0.266053
   7 H :    0.255004
   8 H :    0.268900
   9 H :    0.262462
  10 H :    0.162615
  11 H :    0.161186
  12 H :    0.164724
  13 H :    0.161510
  14 H :    0.159465
Sum of atomic charges:   -0.0000000

--------------------------------
MULLIKEN REDUCED ORBITAL CHARGES
--------------------------------
  0 O s       :     3.916419  s :     3.916419
      pz      :     1.445996  p :     4.503607
      px      :     1.570855
      py      :     1.486756
      dz2     :     0.001665  d :     0.008777
      dxz     :     0.000916
      dyz     :     0.001692
      dx2y2   :     0.002629
      dxy     :     0.001876
      f0      :    -0.000031  f :    -0.000021
      f+1     :     0.000066
      f-1     :     0.000053
      f+2     :    -0.000009
      f-2     :     0.000082
      f+3     :    -0.000184
      f-3     :     0.000003
  1 O s       :     3.911763  s :     3.911763
      pz      :     1.431308  p :     4.500959
      px      :     1.406586
      py      :     1.663065
      dz2     :     0.001998  d :     0.009107
      dxz     :     0.001172
      dyz     :     0.001471
      dx2y2   :     0.005017
      dxy     :    -0.000551
      f0      :    -0.000038  f :    -0.000016
      f+1     :    -0.000021
      f-1     :     0.000148
      f+2     :     0.000059
      f-2     :    -0.000010
      f+3     :    -0.000091
      f-3     :    -0.000062
  2 O s       :     3.919821  s :     3.919821
      pz      :     1.478541  p :     4.490573
      px      :     1.669293
      py      :     1.342739
      dz2     :     0.001861  d :     0.007772
      dxz     :     0.001683
      dyz     :     0.001043
      dx2y2   :     0.002404
      dxy     :     0.000781
      f0      :     0.000003  f :    -0.000063
      f+1     :     0.000125
      f-1     :    -0.000060
      f+2     :     0.000071
      f-2     :     0.000008
      f+3     :    -0.000032
      f-3     :    -0.000177
  3 O s       :     3.917971  s :     3.917971
      pz      :     1.628346  p :     4.511642
      px      :     1.318512
      py      :     1.564783
      dz2     :     0.002801  d :     0.009515
      dxz     :     0.000508
      dyz     :     0.000822
      dx2y2   :     0.000488
      dxy     :     0.004896
      f0      :     0.000134  f :     0.000077
      f+1     :     0.000084
      f-1     :    -0.000014
      f+2     :     0.000048
      f-2     :     0.000098
      f+3     :    -0.000015
      f-3     :    -0.000258
  4 O s       :     3.910811  s :     3.910811
      pz      :     1.463024  p :     4.498190
      px      :     1.570441
      py      :     1.464725
      dz2     :     0.001928  d :     0.008666
      dxz     :     0.002171
      dyz     :     0.000596
      dx2y2   :    -0.000747
      dxy     :     0.004718
      f0      :    -0.000006  f :    -0.000054
      f+1     :     0.000070
      f-1     :     0.000000
      f+2     :     0.000002
      f-2     :     0.000095
      f+3     :    -0.000156
      f-3     :    -0.000059
  5 H s       :     0.618124  s :     0.618124
      pz      :     0.039419  p :     0.072910
      px      :     0.026707
      py      :     0.006784
      dz2     :     0.003239  d :     0.045367
      dxz     :     0.004864
      dyz     :     0.011589
      dx2y2   :     0.015581
      dxy     :     0.010094
  6 H s       :     0.617779  s :     0.617779
      pz      :     0.038525  p :     0.071115
      px      :    -0.011541
      py      :     0.044131
      dz2     :     0.002770  d :     0.045053
      dxz     :     0.014242
      dyz     :     0.001222
      dx2y2   :     0.006738
      dxy     :     0.020081
  7 H s       :     0.630017  s :     0.630017
      pz      :     0.038450  p :     0.072181
      px      :     0.053382
      py      :    -0.019652
      dz2     :     0.003095  d :     0.042798
      dxz     :     0.000162
      dyz     :     0.012689
      dx2y2   :     0.006929
      dxy     :     0.019924
  8 H s       :     0.613392  s :     0.613392
      pz      :     0.045415  p :     0.072677
      px      :    -0.011294
      py      :     0.038556
      dz2     :     0.002669  d :     0.045030
      dxz     :     0.016447
      dyz     :     0.002160
      dx2y2   :     0.013931
      dxy     :     0.009823
  9 H s       :     0.617106  s :     0.617106
      pz      :     0.040803  p :     0.076308
      px      :     0.029532
      py      :     0.005972
      dz2     :     0.003020  d :     0.044124
      dxz     :     0.006673
      dyz     :     0.009010
      dx2y2   :     0.021192
      dxy     :     0.004228
 10 H s       :     0.710233  s :     0.710233
      pz      :     0.025514  p :     0.108145
      px      :     0.044402
      py      :     0.038229
      dz2     :     0.006371  d :     0.019008
      dxz     :     0.002907
      dyz     :     0.004438
      dx2y2   :     0.001859
      dxy     :     0.003434
 11 H s       :     0.709770  s :     0.709770
      pz      :     0.023854  p :     0.109837
      px      :     0.035763
      py      :     0.050220
      dz2     :     0.006032  d :     0.019207
      dxz     :     0.004105
      dyz     :     0.004006
      dx2y2   :     0.002777
      dxy     :     0.002288
 12 H s       :     0.709427  s :     0.709427
      pz      :     0.026430  p :     0.106678
      px      :     0.050989
      py      :     0.029259
      dz2     :     0.006815  d :     0.019171
      dxz     :     0.003669
      dyz     :     0.002425
      dx2y2   :     0.004172
      dxy     :     0.002090
 13 H s       :     0.712637  s :     0.712637
      pz      :     0.036412  p :     0.107061
      px      :     0.032445
      py      :     0.038205
      dz2     :     0.006992  d :     0.018791
      dxz     :     0.001939
      dyz     :     0.001847
      dx2y2   :     0.005249
      dxy     :     0.002764
 14 H s       :     0.709968  s :     0.709968
      pz      :     0.026776  p :     0.111260
      px      :     0.043028
      py      :     0.041456
      dz2     :     0.006766  d :     0.019307
      dxz     :     0.004222
      dyz     :     0.002546
      dx2y2   :     0.002295
      dxy     :     0.003479


                     *******************************
                     * LOEWDIN POPULATION ANALYSIS *
                     *******************************

----------------------
LOEWDIN ATOMIC CHARGES
----------------------
   0 O :    1.126946
   1 O :    1.127242
   2 O :    1.128359
   3 O :    1.125488
   4 O :    1.126239
   5 H :   -0.671196
   6 H :   -0.670435
   7 H :   -0.665169
   8 H :   -0.671664
   9 H :   -0.671509
  10 H :   -0.456130
  11 H :   -0.455103
  12 H :   -0.457368
  13 H :   -0.459946
  14 H :   -0.455756

-------------------------------
LOEWDIN REDUCED ORBITAL CHARGES
-------------------------------
  0 O s       :     2.952017  s :     2.952017
      pz      :     1.256826  p :     3.800959
      px      :     1.281158
      py      :     1.262975
      dz2     :     0.023884  d :     0.101344
      dxz     :     0.023050
      dyz     :     0.005568
      dx2y2   :     0.013311
      dxy     :     0.035531
      f0      :     0.000955  f :     0.018734
      f+1     :     0.005320
      f-1     :     0.003128
      f+2     :     0.001680
      f-2     :     0.000926
      f+3     :     0.005749
      f-3     :     0.000977
  1 O s       :     2.951932  s :     2.951932
      pz      :     1.253818  p :     3.800873
      px      :     1.238385
      py      :     1.308670
      dz2     :     0.026127  d :     0.101166
      dxz     :     0.004945
      dyz     :     0.021968
      dx2y2   :     0.028342
      dxy     :     0.019785
      f0      :     0.001310  f :     0.018787
      f+1     :     0.002742
      f-1     :     0.005766
      f+2     :     0.001700
      f-2     :     0.000595
      f+3     :     0.004682
      f-3     :     0.001991
  2 O s       :     2.951766  s :     2.951766
      pz      :     1.275819  p :     3.800259
      px      :     1.309163
      py      :     1.215277
      dz2     :     0.021830  d :     0.100861
      dxz     :     0.018154
      dyz     :     0.010299
      dx2y2   :     0.038038
      dxy     :     0.012539
      f0      :     0.000472  f :     0.018755
      f+1     :     0.004938
      f-1     :     0.003348
      f+2     :     0.000962
      f-2     :     0.002201
      f+3     :     0.002069
      f-3     :     0.004765
  3 O s       :     2.953604  s :     2.953604
      pz      :     1.322171  p :     3.802114
      px      :     1.198948
      py      :     1.280995
      dz2     :     0.014367  d :     0.100318
      dxz     :     0.013142
      dyz     :     0.014213
      dx2y2   :     0.029714
      dxy     :     0.028881
      f0      :     0.000780  f :     0.018476
      f+1     :     0.002337
      f-1     :     0.002709
      f+2     :     0.000564
      f-2     :     0.004355
      f+3     :     0.001720
      f-3     :     0.006011
  4 O s       :     2.952597  s :     2.952597
      pz      :     1.264350  p :     3.801432
      px      :     1.285418
      py      :     1.251664
      dz2     :     0.022481  d :     0.100946
      dxz     :     0.009456
      dyz     :     0.019577
      dx2y2   :     0.013069
      dxy     :     0.036362
      f0      :     0.000682  f :     0.018787
      f+1     :     0.004207
      f-1     :     0.004262
      f+2     :     0.000668
      f-2     :     0.002139
      f+3     :     0.003595
      f-3     :     0.003234
  5 H s       :     0.541510  s :     0.541510
      pz      :     0.140850  p :     0.627020
      px      :     0.195976
      py      :     0.290194
      dz2     :     0.055241  d :     0.502666
      dxz     :     0.049187
      dyz     :     0.106394
      dx2y2   :     0.141802
      dxy     :     0.150041
  6 H s       :     0.541706  s :     0.541706
      pz      :     0.138978  p :     0.626387
      px      :     0.335405
      py      :     0.152004
      dz2     :     0.052337  d :     0.502341
      dxz     :     0.143981
      dyz     :     0.012493
      dx2y2   :     0.146902
      dxy     :     0.146628
  7 H s       :     0.543661  s :     0.543661
      pz      :     0.141813  p :     0.622297
      px      :     0.142004
      py      :     0.338479
      dz2     :     0.048793  d :     0.499211
      dxz     :     0.001541
      dyz     :     0.157139
      dx2y2   :     0.150539
      dxy     :     0.141200
  8 H s       :     0.541902  s :     0.541902
      pz      :     0.147466  p :     0.627444
      px      :     0.312068
      py      :     0.167910
      dz2     :     0.050451  d :     0.502318
      dxz     :     0.135662
      dyz     :     0.020414
      dx2y2   :     0.146414
      dxy     :     0.149376
  9 H s       :     0.541527  s :     0.541527
      pz      :     0.141072  p :     0.627080
      px      :     0.227753
      py      :     0.258254
      dz2     :     0.054565  d :     0.502902
      dxz     :     0.060001
      dyz     :     0.095082
      dx2y2   :     0.144088
      dxy     :     0.149166
 10 H s       :     0.581080  s :     0.581080
      pz      :     0.223171  p :     0.530854
      px      :     0.169070
      py      :     0.138613
      dz2     :     0.108143  d :     0.344196
      dxz     :     0.089518
      dyz     :     0.079864
      dx2y2   :     0.028128
      dxy     :     0.038543
 11 H s       :     0.580247  s :     0.580247
      pz      :     0.226456  p :     0.530467
      px      :     0.131761
      py      :     0.172250
      dz2     :     0.111105  d :     0.344388
      dxz     :     0.082804
      dyz     :     0.090243
      dx2y2   :     0.027958
      dxy     :     0.032278
 12 H s       :     0.581475  s :     0.581475
      pz      :     0.221608  p :     0.531780
      px      :     0.173304
      py      :     0.136867
      dz2     :     0.106595  d :     0.344113
      dxz     :     0.082286
      dyz     :     0.075236
      dx2y2   :     0.045736
      dxy     :     0.034260
 13 H s       :     0.582907  s :     0.582907
      pz      :     0.202241  p :     0.532744
      px      :     0.152476
      py      :     0.178028
      dz2     :     0.083153  d :     0.344294
      dxz     :     0.063156
      dyz     :     0.068962
      dx2y2   :     0.075155
      dxy     :     0.053868
 14 H s       :     0.580060  s :     0.580060
      pz      :     0.221635  p :     0.531022
      px      :     0.151595
      py      :     0.157793
      dz2     :     0.106426  d :     0.344673
      dxz     :     0.079139
      dyz     :     0.086226
      dx2y2   :     0.036525
      dxy     :     0.036358


                      *****************************
                      * MAYER POPULATION ANALYSIS *
                      *****************************

  NA   - Mulliken gross atomic population
  ZA   - Total nuclear charge
  QA   - Mulliken gross atomic charge
  VA   - Mayer's total valence
  BVA  - Mayer's bonded valence
  FA   - Mayer's free valence

  ATOM       NA         ZA         QA         VA         BVA        FA
  0 O      8.4288     8.0000    -0.4288     1.8981     1.8981    -0.0000
  1 O      8.4218     8.0000    -0.4218     1.9002     1.9002    -0.0000
  2 O      8.4181     8.0000    -0.4181     1.9045     1.9045     0.0000
  3 O      8.4392     8.0000    -0.4392     1.8957     1.8957    -0.0000
  4 O      8.4176     8.0000    -0.4176     1.9068     1.9068     0.0000
  5 H      0.7364     1.0000     0.2636     1.0148     1.0148    -0.0000
  6 H      0.7339     1.0000     0.2661     1.0108     1.0108    -0.0000
  7 H      0.7450     1.0000     0.2550     1.0235     1.0235     0.0000
  8 H      0.7311     1.0000     0.2689     1.0090     1.0090     0.0000
  9 H      0.7375     1.0000     0.2625     1.0166     1.0166     0.0000
 10 H      0.8374     1.0000     0.1626     1.0894     1.0894    -0.0000
 11 H      0.8388     1.0000     0.1612     1.0937     1.0937    -0.0000
 12 H      0.8353     1.0000     0.1647     1.0797     1.0797    -0.0000
 13 H      0.8385     1.0000     0.1615     1.0873     1.0873    -0.0000
 14 H      0.8405     1.0000     0.1595     1.0975     1.0975     0.0000

  Mayer bond orders larger than 0.100000
B(  0-O ,  5-H ) :   0.8641 B(  0-O ,  9-H ) :   0.1007 B(  0-O , 10-H ) :   1.0485 
B(  1-O ,  5-H ) :   0.1031 B(  1-O ,  6-H ) :   0.8659 B(  1-O , 11-H ) :   1.0496 
B(  2-O ,  7-H ) :   0.8768 B(  2-O , 12-H ) :   1.0472 B(  3-O ,  8-H ) :   0.8613 
B(  3-O , 13-H ) :   1.0536 B(  4-O ,  8-H ) :   0.1011 B(  4-O ,  9-H ) :   0.8689 
B(  4-O , 14-H ) :   1.0519 

-------
TIMINGS
-------

Total SCF time: 0 days 0 hours 0 min 6 sec 

Total time                  ....       6.664 sec
Sum of individual times     ....       6.316 sec  ( 94.8%)

Fock matrix formation       ....       5.168 sec  ( 77.6%)
  Split-RI-J                ....       1.933 sec  ( 37.4% of F)
  XC integration            ....       3.004 sec  ( 58.1% of F)
    Basis function eval.    ....       0.275 sec  (  9.2% of XC)
    Density eval.           ....       0.684 sec  ( 22.8% of XC)
    XC-Functional eval.     ....       0.051 sec  (  1.7% of XC)
    XC-Potential eval.      ....       1.447 sec  ( 48.2% of XC)
Diagonalization             ....       0.240 sec  (  3.6%)
Density matrix formation    ....       0.035 sec  (  0.5%)
Population analysis         ....       0.033 sec  (  0.5%)
Initial guess               ....       0.238 sec  (  3.6%)
Orbital Transformation      ....       0.000 sec  (  0.0%)
Orbital Orthonormalization  ....       0.000 sec  (  0.0%)
DIIS solution               ....       0.104 sec  (  1.6%)
SOSCF solution              ....       0.242 sec  (  3.6%)
Grid generation             ....       0.256 sec  (  3.8%)


-------------------------------------------------------------------------------
                          DFT DISPERSION CORRECTION                            
                                                                               
                              DFTD3 V3.1  Rev 1                                
                          USING Becke-Johnson damping                          
-------------------------------------------------------------------------------
The SCAN functional is recognized
Active option DFTDOPT                   ...         4   

molecular C6(AA) [au] = 1112.689386 


            DFT-D V3
 parameters
 s6 scaling factor         :     1.0000 
 a1 scaling factor         :     0.5380 
 s8 scaling factor         :     0.0000 
 a2 scaling factor         :     5.4200 
 ad hoc parameters k1-k3   :    16.0000     1.3333    -4.0000 

 Edisp/kcal,au: -1.147259827001  -0.001828274715 
 E6   /kcal   :  -1.147259827 
 E8   /kcal   :  -0.000000000 
 % E8         :   0.000000000 

-------------------------   ----------------
Dispersion correction           -0.001828275
-------------------------   ----------------


-------------------------   --------------------
FINAL SINGLE POINT ENERGY      -382.196349171657
-------------------------   --------------------



           ************************************************************
           *        Program running with 24 parallel MPI-processes    *
           *              working on a common directory               *
           ************************************************************
------------------------------------------------------------------------------
                         ORCA SCF GRADIENT CALCULATION
------------------------------------------------------------------------------

Gradient of the Kohn-Sham DFT energy:
Kohn-Sham wavefunction type      ... RKS
Hartree-Fock exchange scaling    ...    0.000
Number of operators              ...    1
Number of atoms                  ...   15
Basis set dimensions             ...  460
Integral neglect threshold       ... 2.5e-11
Integral primitive cutoff        ... 2.5e-12

Nuclear repulsion gradient       ... done
One Electron Gradient            ... done
Pre-screening matrix             ... done
RI-J gradient                    ... done
Exchange-correlation gradient    ... done
Dispersion correction            ... done

------------------
CARTESIAN GRADIENT
------------------

   1   O   :   -0.017911848    0.049735830   -0.056949941
   2   O   :    0.038773925    0.029073711    0.060506206
   3   O   :    0.045127570   -0.022532071   -0.060249212
   4   O   :   -0.002398437   -0.062599320   -0.046415682
   5   O   :   -0.054114051   -0.002720812    0.055972192
   6   H   :    0.003813770    0.005155543    0.001020987
   7   H   :    0.006225003   -0.001837996   -0.000727418
   8   H   :    0.000062396   -0.006306605    0.000127137
   9   H   :   -0.006276770   -0.002034609    0.000215545
  10   H   :   -0.003844512    0.005204100   -0.000841816
  11   H   :   -0.001666177    0.000263176   -0.003037521
  12   H   :   -0.000381486    0.001514419    0.003091802
  13   H   :    0.001468115    0.001217080   -0.002954495
  14   H   :    0.001851271   -0.001795394   -0.002361913
  15   H   :   -0.000862090   -0.001530221    0.003036028

Difference to translation invariance:
           :    0.0098666787   -0.0091931695   -0.0495681008

Norm of the cartesian gradient     ...    0.1750452649
RMS gradient                       ...    0.0260942074
MAX gradient                       ...    0.0625993200

-------
TIMINGS
-------

Total SCF gradient time            ...        2.000 sec

One electron gradient       ....       0.037 sec  (  1.9%)
Prescreening matrices       ....       0.055 sec  (  2.7%)
RI-J Coulomb gradient       ....       0.430 sec  ( 21.5%)
XC gradient                 ....       1.084 sec  ( 54.2%)
------------------------------------------------------------------------------
                         ORCA GEOMETRY RELAXATION STEP
------------------------------------------------------------------------------

Reading the OPT-File                    .... done
Getting information on internals        .... done
Copying old internal coords+grads       .... done
Making the new internal coordinates     .... (new redundants).... done
Validating the new internal coordinates .... (new redundants).... done
Calculating the B-matrix                .... done
Calculating the G,G- and P matrices     .... done
Transforming gradient to internals      .... done
Projecting the internal gradient        .... done
Number of atoms                         ....  15
Number of internal coordinates          ....  59
Current Energy                          ....  -382.196349172 Eh
Current gradient norm                   ....     0.175045265 Eh/bohr
Maximum allowed component of the step   ....  0.300
Current trust radius                    ....  0.300
Evaluating the initial hessian          ....  (Almloef) done
Projecting the Hessian                  .... done
Forming the augmented Hessian           .... done
Diagonalizing the augmented Hessian     .... done
Last element of RFO vector              ....  0.759736815
Lowest eigenvalues of augmented Hessian:
 -0.115673945  0.001670663  0.011760151  0.023683739  0.027426455
Length of the computed step             ....  0.855863101
Warning: the length of the step is outside the trust region - taking restricted step instead
The input lambda is                     ....    -0.115674
   iter:   1  x=   -0.178931  g=   10.156950 f(x)=     0.642502
   iter:   2  x=   -0.260237  g=    3.323616 f(x)=     0.270230
   iter:   3  x=   -0.342031  g=    1.253529 f(x)=     0.102531
   iter:   4  x=   -0.392318  g=    0.609094 f(x)=     0.030630
   iter:   5  x=   -0.404335  g=    0.422540 f(x)=     0.005078
   iter:   6  x=   -0.404850  g=    0.389760 f(x)=     0.000201
   iter:   7  x=   -0.404851  g=    0.388435 f(x)=     0.000000
   iter:   8  x=   -0.404851  g=    0.388432 f(x)=     0.000000
   iter:   9  x=   -0.404851  g=    0.388432 f(x)=     0.000000
The output lambda is                    ....    -0.404851 (9 iterations)
The final length of the internal step   ....  0.300000000
Converting the step to cartesian space:
 Initial RMS(Int)=    0.0390566733
Transforming coordinates:
 Iter   0:  RMS(Cart)=    0.0705701644 RMS(Int)=    0.0384634875
 Iter   1:  RMS(Cart)=    0.0052287177 RMS(Int)=    0.0026898845
 Iter   2:  RMS(Cart)=    0.0019584534 RMS(Int)=    0.0011442530
 Iter   3:  RMS(Cart)=    0.0009963268 RMS(Int)=    0.0005583245
 Iter   4:  RMS(Cart)=    0.0004972548 RMS(Int)=    0.0002754982
 Iter   5:  RMS(Cart)=    0.0002471271 RMS(Int)=    0.0001362236
 Iter   6:  RMS(Cart)=    0.0001229312 RMS(Int)=    0.0000674658
 Iter   7:  RMS(Cart)=    0.0000612050 RMS(Int)=    0.0000334619
 Iter   8:  RMS(Cart)=    0.0000304946 RMS(Int)=    0.0000166177
 Iter   9:  RMS(Cart)=    0.0000152027 RMS(Int)=    0.0000082616
 Iter  10:  RMS(Cart)=    0.0000075829 RMS(Int)=    0.0000041111
 Iter  11:  RMS(Cart)=    0.0000037838 RMS(Int)=    0.0000020473
 Iter  12:  RMS(Cart)=    0.0000018887 RMS(Int)=    0.0000010202
 Iter  13:  RMS(Cart)=    0.0000009430 RMS(Int)=    0.0000005086
 Iter  14:  RMS(Cart)=    0.0000004710 RMS(Int)=    0.0000002537
 Iter  15:  RMS(Cart)=    0.0000002352 RMS(Int)=    0.0000001266
 Iter  16:  RMS(Cart)=    0.0000001175 RMS(Int)=    0.0000000632
 Iter  17:  RMS(Cart)=    0.0000000587 RMS(Int)=    0.0000000315
done
Storing new coordinates                 .... done

                                .--------------------.
          ----------------------|Geometry convergence|-------------------------
          Item                value                   Tolerance       Converged
          ---------------------------------------------------------------------
          RMS gradient        0.0189673637            0.0001000000      NO
          MAX gradient        0.0519503758            0.0003000000      NO
          RMS step            0.0390566733            0.0020000000      NO
          MAX step            0.1173276257            0.0040000000      NO
          ........................................................
          Max(Bonds)      0.0340      Max(Angles)    3.65
          Max(Dihed)        6.72      Max(Improp)    0.00
          ---------------------------------------------------------------------

The optimization has not yet converged - more geometry cycles are needed


    ---------------------------------------------------------------------------
                         Redundant Internal Coordinates
                            (Angstroem and degrees)

        Definition                    Value    dE/dq     Step     New-Value
    ----------------------------------------------------------------------------
     1. B(H   5,O   0)                0.9779 -0.008996  0.0052    0.9831   
     2. B(H   5,O   1)                1.7525 -0.016496  0.0199    1.7724   
     3. B(H   6,O   2)                1.7543 -0.024791  0.0303    1.7846   
     4. B(H   6,O   1)                0.9777 -0.015885  0.0094    0.9871   
     5. B(H   7,O   2)                0.9770 -0.018529  0.0111    0.9881   
     6. B(H   7,O   3)                1.7697 -0.027447  0.0340    1.8037   
     7. B(H   8,O   4)                1.7548 -0.024162  0.0298    1.7845   
     8. B(H   8,O   3)                0.9779 -0.017436  0.0104    0.9883   
     9. B(H   9,O   0)                1.7535 -0.018727  0.0227    1.7762   
    10. B(H   9,O   4)                0.9779 -0.013373  0.0078    0.9857   
    11. B(H  10,O   0)                0.9581 -0.004873  0.0028    0.9609   
    12. B(H  11,O   1)                0.9583 -0.002458  0.0014    0.9597   
    13. B(H  12,O   2)                0.9580  0.005356 -0.0031    0.9550   
    14. B(H  13,O   3)                0.9579  0.007007 -0.0040    0.9539   
    15. B(H  14,O   4)                0.9584 -0.001673  0.0010    0.9593   
    16. A(H   9,O   0,H  10)          119.31  0.001688    0.38    119.69   
    17. A(H   5,O   0,H   9)          111.40  0.003091   -0.15    111.25   
    18. A(H   5,O   0,H  10)          105.42 -0.031442    3.24    108.66   
    19. A(H   5,O   1,H   6)          111.61 -0.000205    0.18    111.79   
    20. A(H   5,O   1,H  11)          117.92  0.010486   -0.55    117.37   
    21. A(H   6,O   1,H  11)          105.31 -0.036023    3.65    108.96   
    22. A(H   7,O   2,H  12)          105.55 -0.024552    2.49    108.04   
    23. A(H   6,O   2,H  12)          117.41  0.012669   -1.08    116.33   
    24. A(H   6,O   2,H   7)          112.50 -0.009894    1.01    113.51   
[...]
          Item                value                   Tolerance       Converged
          ---------------------------------------------------------------------
          Energy change       0.0008011409            0.0000050000      NO
          RMS gradient        0.0047831211            0.0001000000      NO
          MAX gradient        0.0197820627            0.0003000000      NO
          RMS step            0.0195283366            0.0020000000      NO
          MAX step            0.0997116471            0.0040000000      NO
          ........................................................
          Max(Bonds)      0.0528      Max(Angles)    0.98
          Max(Dihed)        2.63      Max(Improp)    0.00
          ---------------------------------------------------------------------

The optimization has not yet converged - more geometry cycles are needed


    ---------------------------------------------------------------------------
                         Redundant Internal Coordinates
                            (Angstroem and degrees)

        Definition                    Value    dE/dq     Step     New-Value
    ----------------------------------------------------------------------------
     1. B(O   2,O   1)                3.7075 -0.004507  0.0279    3.7354   
     2. B(H   5,O   0)                0.9391 -0.003721 -0.0046    0.9345   
     3. B(H   5,O   1)                2.8362 -0.003565  0.0346    2.8709   
     4. B(H   5,O   2)                2.3490  0.010266  0.0024    2.3514   
     5. B(H   6,O   2)                3.2023 -0.004593  0.0344    3.2367   
     6. B(H   6,O   1)                0.9412 -0.005101 -0.0026    0.9385   
     7. B(H   6,H   5)                2.8664 -0.004105  0.0338    2.9002   
     8. B(H   7,H   6)                3.4888 -0.004335  0.0218    3.5106   
     9. B(H   7,H   5)                2.8044 -0.002581  0.0124    2.8168   
    10. B(H   7,O   2)                0.9401 -0.011655  0.0003    0.9404   
    11. B(H   7,O   3)                3.5211 -0.015296  0.0528    3.5739   
    12. B(H   8,O   4)                2.8714 -0.011819  0.0401    2.9115   
    13. B(H   8,H   7)                3.7790 -0.009941  0.0451    3.8241   
    14. B(H   8,O   3)                0.9385 -0.017925 -0.0033    0.9352   
    15. B(H   9,O   1)                2.5555  0.001338  0.0029    2.5584   
    16. B(H   9,H   8)                3.1476 -0.013933  0.0411    3.1887   
    17. B(H   9,H   5)                2.4192 -0.006086  0.0264    2.4456   
    18. B(H   9,O   0)                2.4564 -0.009212  0.0301    2.4865   
    19. B(H   9,O   4)                0.9617  0.012491  0.0015    0.9631   
    20. B(H   9,H   6)                2.6423 -0.000483  0.0030    2.6452   
    21. B(H  10,O   0)                0.9332 -0.013706  0.0021    0.9354   
    22. B(H  11,O   1)                0.9522  0.003314 -0.0001    0.9520   
    23. B(H  11,H   9)                2.7217  0.004183 -0.0020    2.7197   
    24. B(H  12,H   6)                3.7255 -0.019782  0.0433    3.7688   
    25. B(H  12,H   5)                2.3723  0.006784 -0.0059    2.3664   
    26. B(H  12,O   2)                0.9410 -0.002635  0.0010    0.9420   
    27. B(H  13,O   3)                0.9634  0.012278 -0.0002    0.9632   
    28. B(H  14,O   4)                0.9474 -0.000973  0.0027    0.9501   
    29. A(H   5,O   0,H  10)          136.17  0.016335   -0.51    135.67   
    30. A(H   9,O   0,H  10)          146.73 -0.018164    0.72    147.45   
    31. A(H   5,O   0,H   9)           76.67  0.001721   -0.06     76.62   
    32. A(H   5,O   1,H   9)           53.01 -0.001027    0.21     53.22   
    33. A(H   6,O   1,H  11)          142.14  0.003079   -0.64    141.50   
    34. A(H   6,O   1,H   9)           84.81 -0.000212    0.07     84.88   
    35. A(H   5,O   1,H   6)           82.32  0.000152    0.11     82.43   
    36. A(H   9,O   1,H  11)           89.65  0.001059   -0.27     89.38   
    37. A(H   5,O   1,H  11)          122.91 -0.002064    0.02    122.93   
    38. A(O   2,O   1,H   6)           51.16 -0.001503    0.43     51.59   
    39. A(O   2,O   1,H   9)           78.94  0.000916   -0.16     78.78   
    40. A(O   2,O   1,H   5)           39.31  0.002448   -0.37     38.94   
    41. A(O   1,O   2,H   7)          110.61  0.001898   -0.64    109.96   
    42. A(O   1,O   2,H  12)          104.53 -0.008811    0.72    105.24   
    43. A(H   7,O   2,H  12)          140.36  0.006710    0.11    140.47   
    44. A(H   7,O   3,H  13)          131.22 -0.014355    0.46    131.68   
    45. A(H   7,O   3,H   8)           98.72  0.007268   -0.33     98.39   
    46. A(H   8,O   3,H  13)          130.06  0.007088   -0.06    130.01   
    47. A(H   8,O   4,H  14)          140.66 -0.002852   -0.02    140.64   
    48. A(H   8,O   4,H   9)           97.67 -0.004873    0.17     97.85   
    49. A(H   9,O   4,H  14)          120.95  0.008210   -0.21    120.74   
    50. A(O   1,H   5,H   9)           57.54  0.001313   -0.74     56.80   
    51. A(O   0,H   5,O   1)          133.96 -0.000426   -0.01    133.95   
    52. A(O   0,H   5,H   9)           81.13 -0.001575    0.40     81.53   
    53. A(O   1,H   5,H   6)           18.99 -0.000719   -0.32     18.67   
    54. A(H   6,H   5,H   9)           59.27  0.000996   -0.65     58.62   
    55. A(O   0,H   5,H   6)          140.39 -0.000545   -0.32    140.06   
    56. A(O   1,H   6,H   9)           74.41  0.001271    0.03     74.43   
    57. A(H   5,H   6,H   9)           51.91 -0.000819    0.18     52.09   
    58. A(O   1,H   6,H   5)           78.69  0.000567    0.21     78.90   
    59. A(O   2,H   7,H   8)          117.12  0.002197    0.26    117.38   
    60. A(O   2,H   7,O   3)          130.03  0.000584    0.08    130.10   
    61. A(O   3,H   7,H   8)           14.21 -0.002489   -0.22     13.99   
    62. A(O   4,H   8,H   9)           17.63  0.003137   -0.26     17.37   
    63. A(O   3,H   8,H   9)          136.25 -0.004238   -0.17    136.08   
    64. A(O   4,H   8,H   7)           89.94  0.004735   -0.94     89.00   
    65. A(O   3,H   8,H   7)           67.07 -0.004779    0.55     67.62   
    66. A(O   3,H   8,O   4)          153.41 -0.001036   -0.43    152.98   
    67. A(H   7,H   8,H   9)           72.76  0.002037   -0.75     72.00   
    68. A(O   1,H   9,H   6)           20.78 -0.001059   -0.09     20.69   
    69. A(H   5,H   9,H   6)           68.82 -0.000177    0.47     69.29   
    70. A(H   5,H   9,H   8)          101.59 -0.000753    0.24    101.83   
    71. A(O   0,H   9,H   6)           91.01 -0.000315    0.10     91.12   
    72. A(O   0,H   9,O   4)          173.46 -0.000990    0.20    173.66   
    73. A(O   0,H   9,H   8)          111.19 -0.002589    0.09    111.28   
    74. A(O   4,H   9,H   8)           64.70  0.001737    0.08     64.79   
    75. A(O   4,H   9,H   6)           91.93  0.001119   -0.13     91.80   
    76. A(O   1,H   9,H   5)           69.46 -0.000286    0.53     69.98   
    77. A(O   0,H   9,O   1)           90.27 -0.000463    0.28     90.56   
    78. A(O   0,H   9,H   5)           22.19 -0.000146   -0.34     21.85   
    79. A(O   1,H   9,O   4)           94.55  0.001381   -0.37     94.18   
    80. A(O   4,H   9,H   5)          160.04  0.000586    0.34    160.38   
    81. A(H   6,H   9,H  11)           38.97 -0.000276   -0.16     38.81   
    82. A(O   1,H   9,H  11)           20.48  0.000386   -0.01     20.47   
    83. A(H   5,H   9,H  11)           84.01 -0.000798    0.67     84.68   
    84. A(O   1,H   9,H   8)           87.60  0.004864   -0.67     86.93   
    85. A(H   6,H   9,H   8)           68.03  0.005436   -0.52     67.51   
    86. A(H   8,H   9,H  11)           98.83  0.006636   -0.98     97.85   
    87. A(O   0,H   9,H  11)          101.94 -0.001224    0.61    102.55   
    88. A(O   4,H   9,H  11)           83.98  0.002286   -0.73     83.25   
    89. A(O   1,H  11,H   9)           69.87 -0.001446    0.28     70.15   
    90. D(H  12,O   2,O   1,H   9)   -106.12 -0.006835    1.18   -104.94   
    91. D(H   7,O   2,O   1,H   9)     55.20 -0.005536    1.52     56.73   
    92. D(H   7,O   2,O   1,H   6)    -37.04 -0.004856    1.40    -35.64   
    93. D(H   7,O   2,O   1,H   5)     98.39 -0.006420    1.56     99.96   
    94. D(H  12,O   2,O   1,H   6)    161.64 -0.006155    1.06    162.70   
    95. D(H  12,O   2,O   1,H   5)    -62.93 -0.007719    1.22    -61.71   
    96. D(H   6,H   5,O   1,H   9)     89.28 -0.000252    0.16     89.44   
    97. D(H   6,H   5,O   0,H  10)    172.44 -0.001291   -1.27    171.17   
    98. D(H   6,H   5,O   1,O   2)    -33.47 -0.000236   -0.05    -33.52   
    99. D(O   0,H   5,O   1,H   6)   -119.12  0.000140    0.97   -118.14   
   100. D(O   0,H   5,O   1,H   9)    -29.83 -0.000113    1.13    -28.70   
   101. D(O   0,H   5,O   1,H  11)     30.39  0.003055    0.57     30.95   
   102. D(H   9,H   5,O   1,H  11)     60.22  0.003168   -0.56     59.66   
   103. D(O   0,H   5,O   1,O   2)   -152.59 -0.000096    0.93   -151.66   
   104. D(H   6,H   5,O   0,H   9)     -1.34  0.001929   -0.47     -1.81   
   105. D(H   9,H   5,O   1,H   6)    -89.28  0.000252   -0.16    -89.44   
   106. D(H   9,H   5,O   1,O   2)   -122.75  0.000016   -0.20   -122.96   
   107. D(O   1,H   5,O   0,H   9)     25.14  0.000599   -1.18     23.96   
   108. D(H   9,H   5,O   0,H  10)    173.78 -0.003220   -0.80    172.98   
   109. D(H   6,H   5,O   1,H  11)    149.50  0.002915   -0.41    149.10   
   110. D(O   1,H   5,O   0,H  10)   -161.08 -0.002621   -1.98   -163.06   
   111. D(O   1,H   6,H   5,O   0)     80.50 -0.001014    0.37     80.87   
   112. D(H   9,H   6,O   1,O   2)     79.97  0.001271   -0.24     79.73   
   113. D(H   9,H   6,H   5,O   0)      1.54 -0.002241    0.65      2.19   
   114. D(H   5,H   6,O   1,H  11)   -136.04  0.000334    0.12   -135.92   
   115. D(H   5,H   6,O   1,O   2)     26.65  0.002287   -0.32     26.33   
   116. D(H   5,H   6,O   1,H   9)    -53.32  0.001017   -0.08    -53.40   
   117. D(H   9,H   6,O   1,H   5)     53.32 -0.001017    0.08     53.40   
   118. D(O   1,H   6,H   5,H   9)     78.96  0.001227   -0.27     78.68   
   119. D(H   9,H   6,H   5,O   1)    -78.96 -0.001227    0.27    -78.68   
   120. D(H   9,H   6,O   1,H  11)    -82.72 -0.000682    0.20    -82.52   
   121. D(H   8,H   7,O   3,H  13)   -179.89 -0.000328   -0.40   -180.29   
   122. D(O   2,H   7,O   3,H  13)    153.20  0.006741   -0.15    153.05   
   123. D(O   2,H   7,O   3,H   8)    -26.91  0.007069    0.25    -26.66   
   124. D(H   8,H   7,O   2,O   1)     -1.64  0.000373   -0.65     -2.29   
   125. D(O   3,H   7,O   2,O   1)      5.53 -0.002474   -0.78      4.74   
   126. D(H   8,H   7,O   2,H  12)    149.28 -0.003263   -0.16    149.12   
   127. D(O   3,H   7,O   2,H  12)    156.45 -0.006110   -0.30    156.15   
   128. D(H   9,H   8,H   7,O   2)    -40.64  0.001064    0.35    -40.29   
   129. D(O   3,H   8,H   7,O   2)    157.08  0.005620    0.21    157.29   
   130. D(H   9,H   8,O   4,H  14)    169.40  0.004417   -0.58    168.82   
   131. D(H   7,H   8,O   4,H  14)    156.69 -0.000823    0.01    156.70   
   132. D(O   3,H   8,O   4,H   9)     16.52 -0.002292    0.31     16.83   
   133. D(H   9,H   8,O   3,H   7)    -24.86 -0.004848    0.40    -24.46   
   134. D(H   9,H   8,O   3,H  13)    155.03 -0.004560    0.88    155.92   
   135. D(H   7,H   8,O   4,H   9)    -12.70 -0.005240    0.59    -12.12   
   136. D(H   7,H   8,O   3,H  13)    179.89  0.000288    0.48    180.38   
   137. D(O   4,H   8,O   3,H   7)    -32.01 -0.004562    0.38    -31.63   
   138. D(O   3,H   8,O   4,H  14)   -174.08  0.002125   -0.27   -174.35   
   139. D(O   4,H   8,O   3,H  13)    147.88 -0.004273    0.86    148.75   
   140. D(O   4,H   8,H   7,O   3)    166.28 -0.002286   -0.10    166.18   
   141. D(H   9,H   8,H   7,O   3)    162.28 -0.004557    0.15    162.42   
   142. D(O   4,H   8,H   7,O   2)    -36.64  0.003334    0.11    -36.53   
   143. D(H  11,H   9,O   0,H  10)    151.07 -0.003336    2.14    153.21   
   144. D(H   8,H   9,H   6,O   1)    159.41  0.004075   -0.68    158.73   
   145. D(H   6,H   9,O   0,H  10)   -171.21 -0.003428    1.84   -169.37   
   146. D(H   6,H   9,O   0,H   5)      0.93 -0.001335    0.59      1.51   
   147. D(H   5,H   9,H   6,O   1)    -87.71  0.000046   -0.32    -88.04   
   148. D(H   8,H   9,H   6,H   5)   -112.87  0.004029   -0.36   -113.24   
   149. D(H  11,H   9,O   0,H   5)    -36.79 -0.001243    0.89    -35.90   
   150. D(O   0,H   9,H   8,O   3)      5.06 -0.002436    0.38      5.44   
   151. D(H   8,H   9,O   0,H   5)     67.69  0.004800    0.02     67.71   
   152. D(O   1,H   9,O   0,H  10)    168.02 -0.002361    1.95    169.97   
   153. D(O   1,H   9,O   0,H   5)    -19.84 -0.000268    0.70    -19.14   
   154. D(O   4,H   9,H   6,H   5)   -174.54  0.001247   -0.37   -174.91   
   155. D(O   4,H   9,H   6,O   1)     97.75  0.001293   -0.69     97.06   
   156. D(H   5,H   9,O   0,H  10)   -172.14 -0.002093    1.25   -170.89   
   157. D(O   4,H   9,O   0,H  10)    -54.42  0.000114    2.63    -51.79   
   158. D(H  11,H   9,H   5,H   6)    -37.09 -0.000032    0.48    -36.62   
   159. D(O   4,H   9,O   0,H   5)    117.72  0.002207    1.38    119.10   
   160. D(H  11,H   9,H   5,O   0)    143.90 -0.001461    1.09    144.99   
   161. D(H   6,H   9,H   5,O   1)     22.24 -0.001098   -0.26     21.99   
   162. D(H   6,H   9,H   5,O   0)   -179.01 -0.001430    0.61   -178.40   
   163. D(O   1,H   9,H   5,O   0)    158.75 -0.000332    0.86    159.62   
   164. D(O   0,H   9,H   5,H   6)    179.01  0.001430   -0.61    178.40   
   165. D(O   0,H   9,H   5,O   1)   -158.75  0.000332   -0.86   -159.62   
   166. D(O   4,H   9,H   5,H   6)     16.18  0.004240   -1.07     15.11   
   167. D(O   4,H   9,H   5,O   1)     38.43  0.003142   -1.33     37.10   
   168. D(O   4,H   9,H   5,O   0)   -162.82  0.002810   -0.46   -163.28   
   169. D(H   8,H   9,O   4,H  14)   -172.18 -0.002086    0.40   -171.78   
   170. D(H  11,H   9,O   4,H  14)    -69.44  0.003856   -0.35    -69.79   
   171. D(H   6,H   9,O   4,H   8)     64.53  0.006031   -0.49     64.04   
   172. D(H   6,H   9,O   4,H  14)   -107.65  0.003946   -0.09   -107.74   
   173. D(O   1,H   9,O   4,H  14)    -87.01  0.002869   -0.15    -87.16   
   174. D(H   5,H   9,O   4,H   8)     49.46  0.002105    0.49     49.95   
   175. D(H   5,H   9,O   4,H  14)   -122.73  0.000020    0.89   -121.84   
   176. D(O   0,H   9,O   4,H   8)    -52.21  0.002569   -1.32    -53.53   
   177. D(O   0,H   9,O   4,H  14)    135.60  0.000483   -0.92    134.68   
   178. D(H   8,H   9,O   1,O   2)    -70.45  0.004517   -1.03    -71.48   
   179. D(O   1,H   9,O   4,H   8)     85.18  0.004955   -0.55     84.62   
   180. D(H   8,H   9,O   1,H   5)   -103.33  0.002694   -0.55   -103.88   
   181. D(H   8,H   9,O   1,H  11)    123.45  0.006036   -1.18    122.26   
   182. D(H   8,H   9,O   1,H   6)    -19.05  0.003059   -0.59    -19.64   
   183. D(H  11,H   9,O   4,H   8)    102.74  0.005942   -0.75    101.99   
   184. D(H  11,H   9,O   1,O   2)    166.11 -0.001519    0.15    166.26   
   185. D(H  11,H   9,O   1,H   5)    133.23 -0.003343    0.63    133.86   
   186. D(H  11,H   9,O   1,H   6)   -142.50 -0.002977    0.60   -141.90   
   187. D(H   6,H   9,O   1,O   2)    -51.40  0.001458   -0.45    -51.84   
   188. D(H   6,H   9,O   1,H   5)    -84.28 -0.000365    0.04    -84.24   
   189. D(H   6,H   9,O   1,H  11)    142.50  0.002977   -0.60    141.90   
   190. D(H   5,H   9,O   1,O   2)     32.88  0.001824   -0.48     32.40   
   191. D(O   1,H   9,H   5,H   6)    -22.24  0.001098    0.26    -21.99   
   192. D(H   5,H   9,O   1,H  11)   -133.23  0.003343   -0.63   -133.86   
   193. D(O   0,H   9,O   1,O   2)     40.75  0.001892   -0.89     39.85   
   194. D(O   0,H   9,O   1,H   5)      7.87  0.000068   -0.41      7.46   
   195. D(H  11,H   9,H   5,O   1)    -14.85 -0.001130    0.22    -14.63   
   196. D(O   0,H   9,O   1,H  11)   -125.36  0.003411   -1.05   -126.40   
   197. D(H   8,H   9,H   5,O   0)   -118.29  0.005238    0.08   -118.20   
   198. D(H   8,H   9,H   5,O   1)     82.96  0.005569   -0.78     82.18   
   199. D(H   8,H   9,H   5,H   6)     60.72  0.006667   -0.53     60.20   
   200. D(H  11,H   9,H   8,H   7)     87.69 -0.004983    0.84     88.53   
   201. D(H  11,H   9,H   8,O   4)    -79.00  0.000369    0.31    -78.69   
   202. D(O   0,H   9,H   6,O   1)    -88.09  0.000588   -0.52    -88.61   
   203. D(O   0,H   9,H   6,H   5)     -0.38  0.000542   -0.19     -0.57   
   204. D(H  11,H   9,H   8,O   3)    111.61 -0.001520    0.64    112.25   
   205. D(O   1,H   9,H   6,H   5)     87.71 -0.000046    0.32     88.04   
   206. D(H  11,H   9,H   6,O   1)     19.79 -0.000901    0.33     20.13   
   207. D(H  11,H   9,H   6,H   5)    107.51 -0.000947    0.66    108.16   
   208. D(O   4,H   9,O   1,O   2)   -134.83  0.002359   -1.05   -135.88   
   209. D(O   4,H   9,O   1,H   5)   -167.71  0.000535   -0.57   -168.27   
   210. D(O   4,H   9,H   8,O   3)   -169.40 -0.001889    0.33   -169.06   
   211. D(O   4,H   9,H   8,H   7)    166.69 -0.005352    0.53    167.22   
   212. D(O   1,H   9,H   8,H   7)     70.51 -0.004389    0.64     71.14   
   213. D(O   0,H   9,H   8,O   4)    174.46 -0.000547    0.05    174.51   
   214. D(O   0,H   9,H   8,H   7)    -18.85 -0.005899    0.58    -18.28   
   215. D(H   5,H   9,H   8,O   3)     25.96 -0.001879    0.10     26.06   
   216. D(O   4,H   9,O   1,H  11)     59.06  0.003878   -1.20     57.87   
   217. D(O   1,H   9,H   8,O   4)    -96.18  0.000963    0.11    -96.07   
   218. D(O   1,H   9,H   8,O   3)     94.42 -0.000925    0.44     94.86   
   219. D(O   4,H   9,O   1,H   6)    -83.43  0.000901   -0.60    -84.03   
   220. D(H   5,H   9,H   8,H   7)      2.05 -0.005343    0.30      2.34   
   221. D(H   6,H   9,H   8,O   3)     87.25  0.000816    0.24     87.49   
   222. D(H   6,H   9,H   8,O   4)   -103.35  0.002705   -0.09   -103.45   
   223. D(H   6,H   9,H   8,H   7)     63.34 -0.002647    0.44     63.77   
   224. D(H   5,H   9,H   8,O   4)   -164.64  0.000009   -0.24   -164.88   
   225. D(H   8,H   9,O   0,H  10)   -104.44  0.002707    1.27   -103.18   
   226. D(H   5,H   9,O   1,H   6)     84.28  0.000365   -0.04     84.24   
   227. D(O   0,H   9,O   1,H   6)     92.15  0.000433   -0.45     91.70   
   228. D(O   1,H  11,H   9,H   8)    -57.53  0.004326   -0.95    -58.48   
   229. D(O   1,H  11,H   9,H   6)    -20.08  0.002314   -0.29    -20.37   
   230. D(O   1,H  11,H   9,H   5)     43.32  0.002941   -0.43     42.88   
   231. D(O   1,H  11,H   9,O   0)     56.47  0.003265   -0.93     55.53   
   232. D(O   1,H  11,H   9,O   4)   -120.71  0.003322   -1.01   -121.72   
   233. D(H   9,H  11,O   2,H  12)   -109.30 -0.007779    1.29   -108.01   
   234. D(H   9,H  11,O   2,H   7)     49.97 -0.006172    1.63     51.60   
   235. D(H   9,H  11,O   1,H   5)    -43.89 -0.000994    0.16    -43.73   
   236. D(H   9,H  11,O   1,H   6)     81.08  0.000392   -0.14     80.93   
    ----------------------------------------------------------------------------




    ----------------------------------------------------------------------------
                                   ERROR !!!
       The optimization did not converge but reached the maximum 
       number of optimization cycles.
       As a subsequent Frequencies calculation has been requested
       ORCA will abort at this point of the run.
       Please restart the calculation with the lowest energy geometry and/or
       a larger maxiter for the geometry optimization.
    ----------------------------------------------------------------------------


[file orca_main/run.cpp, line 10680]: ORCA finished with error return - aborting the run
[file orca_main/run.cpp, line 10680]: ORCA finished with error return - aborting the run
