
                                 *****************
                                 * O   R   C   A *
                                 *****************

           --- An Ab Initio, DFT and Semiempirical electronic structure package ---

                  #######################################################
                  #                        -***-                        #
                  #          Department of theory and spectroscopy      #
                  #               Directorship: Frank Neese             #
                  #        Max Planck Institute fuer Kohlenforschung    #
                  #                Kaiser Wilhelm Platz 1               #
                  #                 D-45470 Muelheim/Ruhr               #
                  #                      Germany                        #
                  #                                                     #
                  #                  All rights reserved                #
                  #                        -***-                        #
                  #######################################################


                         Program Version 4.2.0 -  RELEASE  -


 With contributions from (in alphabetic order):
   Daniel Aravena         : Magnetic Suceptibility
   Michael Atanasov       : Ab Initio Ligand Field Theory (pilot matlab implementation)
   Alexander A. Auer      : GIAO ZORA, VPT2
   Ute Becker             : Parallelization
   Giovanni Bistoni       : ED, misc. LED, open-shell LED, HFLED
   Martin Brehm           : Molecular dynamics
   Dmytro Bykov           : SCF Hessian
   Vijay G. Chilkuri      : MRCI spin determinant printing, contributions to CSF-ICE
   Dipayan Datta          : RHF DLPNO-CCSD density
   Achintya Kumar Dutta   : EOM-CC, STEOM-CC
   Dmitry Ganyushin       : Spin-Orbit,Spin-Spin,Magnetic field MRCI
   Miquel Garcia          : C-PCM Hessian, Gaussian charge scheme
   Yang Guo               : DLPNO-NEVPT2, CIM, IAO-localization
   Andreas Hansen         : Spin unrestricted coupled pair/coupled cluster methods
   Benjamin Helmich-Paris : CASSCF linear response (MC-RPA)
   Lee Huntington         : MR-EOM, pCC
   Robert Izsak           : Overlap fitted RIJCOSX, COSX-SCS-MP3, EOM
   Christian Kollmar      : KDIIS, OOCD, Brueckner-CCSD(T), CCSD density
   Simone Kossmann        : Meta GGA functionals, TD-DFT gradient, OOMP2, MP2 Hessian
   Martin Krupicka        : AUTO-CI
   Lucas Lang             : DCDCAS
   Dagmar Lenk            : GEPOL surface, SMD
   Dimitrios Liakos       : Extrapolation schemes; Compound Job, initial MDCI parallelization
   Dimitrios Manganas     : Further ROCIS development; embedding schemes
   Dimitrios Pantazis     : SARC Basis sets
   Taras Petrenko         : DFT Hessian,TD-DFT gradient, ASA, ECA, R-Raman, ABS, FL, XAS/XES, NRVS
   Peter Pinski           : DLPNO-MP2, DLPNO-MP2 Gradient
   Christoph Reimann      : Effective Core Potentials
   Marius Retegan         : Local ZFS, SOC
   Christoph Riplinger    : Optimizer, TS searches, QM/MM, DLPNO-CCSD(T), (RO)-DLPNO pert. Triples
   Tobias Risthaus        : Range-separated hybrids, TD-DFT gradient, RPA, STAB
   Michael Roemelt        : Original ROCIS implementation
   Masaaki Saitow         : Open-shell DLPNO-CCSD energy and density
   Barbara Sandhoefer     : DKH picture change effects
   Avijit Sen             : IP-ROCIS
   Kantharuban Sivalingam : CASSCF convergence, NEVPT2, FIC-MRCI
   Bernardo de Souza      : ESD, SOC TD-DFT
   Georgi Stoychev        : AutoAux, RI-MP2 NMR
   Willem Van den Heuvel  : Paramagnetic NMR
   Boris Wezisla          : Elementary symmetry handling
   Frank Wennmohs         : Technical directorship


 We gratefully acknowledge several colleagues who have allowed us to
 interface, adapt or use parts of their codes:
   Stefan Grimme, W. Hujo, H. Kruse,             : VdW corrections, initial TS optimization,
                  C. Bannwarth                     DFT functionals, gCP, sTDA/sTD-DF
   Ed Valeev, F. Pavosevic, A. Kumar             : LibInt (2-el integral package), F12 methods
   Garnet Chan, S. Sharma, J. Yang, R. Olivares  : DMRG
   Ulf Ekstrom                                   : XCFun DFT Library
   Mihaly Kallay                                 : mrcc  (arbitrary order and MRCC methods)
   Andreas Klamt, Michael Diedenhofen            : otool_cosmo (COSMO solvation model)
   Jiri Pittner, Ondrej Demel                    : Mk-CCSD
   Frank Weinhold                                : gennbo (NPA and NBO analysis)
   Christopher J. Cramer and Donald G. Truhlar   : smd solvation model
   Lars Goerigk                                  : TD-DFT with DH, B97 family of functionals
   V. Asgeirsson, H. Jonsson                     : NEB implementation
   FAccTs GmbH                                   : IRC, NEB, NEB-TS, Multilevel, MM, QM/MM, CI optimization
   S Lehtola, MJT Oliveira, MAL Marques          : LibXC Library


 Your calculation uses the libint2 library for the computation of 2-el integrals
 For citations please refer to: http://libint.valeyev.net

 Your ORCA version has been built with support for libXC version: 4.2.3
 For citations please refer to: https://tddft.org/programs/libxc/

 This ORCA versions uses:
   CBLAS   interface :  Fast vector & matrix operations
   LAPACKE interface :  Fast linear algebra routines
   SCALAPACK package :  Parallel linear algebra routines


Your calculation utilizes the atom-pairwise dispersion correction
with the Becke-Johnson damping scheme (D3BJ)
Cite in your paper:
S.Grimme, S.Ehrlich, L.Goerigk, J Comput Chem, (2011), 32, 1456–1465 
S.Grimme, J.Antony, S.Ehrlich and H.Krieg, J.Chem.Phys., 132, (2010), 154104 
   

----- Orbital basis set information -----
Your calculation utilizes the basis: aug-cc-pV(T+d)Z 
             Al - Ar: T.H. Dunning, Jr., K. A. Peterson and A. K. Wilson, J. Chem. Phys.
                      114, 9244 (2001)

----- AuxJ basis set information -----
Your calculation utilizes the auxiliary basis: def2/J
   F. Weigend, Phys. Chem. Chem. Phys. 8, 1057 (2006).

================================================================================
                                        WARNINGS
                       Please study these warnings very carefully!
================================================================================


WARNING: Geometry Optimization
  ===> : Switching off AutoStart
         For restart on a previous wavefunction, please use MOREAD

WARNING: The SCAN functional is very grid-sensitive!
         Use at least GRID5 and a higher intacc

INFO   : the flag for use of LIBINT has been found!

================================================================================
                                       INPUT FILE
================================================================================
NAME = 06_H2O_6_ring.in
|  1> #
|  2> # 06_H2O_6_ring scanfunc/aug-cc-pvt(+d)z
|  3> #
|  4> ! scanfunc d3bj aug-cc-pvt(+d)z def2/j grid4 nofinalgrid opt xyzfile numfreq
|  5> 
|  6> *xyz 0 1
|  7> O	0	2.709181	0.148099
|  8> H	-0.122498	3.233153	0.940879
|  9> H	-0.836919	2.216592	0.034772
| 10> O	-2.346219	-1.35459	0.148099
| 11> H	-1.501165	-1.833089	0.034772
| 12> H	-2.738743	-1.722662	0.940879
| 13> O	2.34622	1.354591	-0.148098
| 14> H	2.738743	1.722663	-0.940878
| 15> H	1.501165	1.83309	-0.034772
| 16> O	0	-2.709181	-0.148098
| 17> H	0.83692	-2.216591	-0.034772
| 18> H	0.122498	-3.233152	-0.940878
| 19> O	2.34622	-1.35459	0.148099
| 20> H	2.861241	-1.510489	0.940879
| 21> H	2.338085	-0.383502	0.034772
| 22> O	-2.346219	1.354591	-0.148098
| 23> H	-2.861241	1.51049	-0.940878
| 24> H	-2.338084	0.383502	-0.034772
| 25> *
| 26> 
| 27> %maxcore 5000
| 28> 
| 29> %pal
| 30> nprocs 24
| 31> end
| 32> 
| 33> 
| 34>                          ****END OF INPUT****
================================================================================

                       *****************************
                       * Geometry Optimization Run *
                       *****************************

Geometry optimization settings:
Update method            Update   .... BFGS
Choice of coordinates    CoordSys .... Z-matrix Internals
Initial Hessian          InHess   .... Almoef's Model

Convergence Tolerances:
Energy Change            TolE     ....  5.0000e-06 Eh
Max. Gradient            TolMAXG  ....  3.0000e-04 Eh/bohr
RMS Gradient             TolRMSG  ....  1.0000e-04 Eh/bohr
Max. Displacement        TolMAXD  ....  4.0000e-03 bohr
RMS Displacement         TolRMSD  ....  2.0000e-03 bohr
Strict Convergence                ....  False
------------------------------------------------------------------------------
                        ORCA OPTIMIZATION COORDINATE SETUP
------------------------------------------------------------------------------

The optimization will be done in new redundant internal coordinates
Making redundant internal coordinates   ...  (new redundants) done
Evaluating the initial hessian          ...  (Almloef) done
Evaluating the coordinates              ...  done
Calculating the B-matrix                .... done
Calculating the G-matrix                .... done
Diagonalizing the G-matrix              .... done
The first mode is                       ....   24
The number of degrees of freedom        ....   48

    -----------------------------------------------------------------
                    Redundant Internal Coordinates


    -----------------------------------------------------------------
         Definition                    Initial Value    Approx d2E/dq
    -----------------------------------------------------------------
      1. B(H   1,O   0)                  0.9582         0.523501   
      2. B(H   2,O   0)                  0.9777         0.487202   
      3. B(H   4,O   3)                  0.9777         0.487201   
      4. B(H   5,O   3)                  0.9582         0.523501   
      5. B(H   7,O   6)                  0.9582         0.523502   
      6. B(H   8,O   6)                  0.9777         0.487200   
      7. B(H   8,O   0)                  1.7477         0.028789   
      8. B(O   9,H   4)                  1.7477         0.028789   
      9. B(H  10,O   9)                  0.9777         0.487199   
     10. B(H  11,O   9)                  0.9582         0.523502   
     11. B(O  12,H  10)                  1.7477         0.028789   
     12. B(H  13,O  12)                  0.9581         0.523502   
     13. B(H  14,O  12)                  0.9777         0.487201   
     14. B(H  14,O   6)                  1.7477         0.028789   
     15. B(O  15,H   2)                  1.7477         0.028789   
     16. B(H  16,O  15)                  0.9582         0.523501   
     17. B(H  17,O   3)                  1.7477         0.028789   
     18. B(H  17,O  15)                  0.9777         0.487199   
     19. A(H   1,O   0,H   2)          105.1878         0.318783   
     20. A(H   2,O   0,H   8)          118.0709         0.208180   
     21. A(H   1,O   0,H   8)          118.0679         0.210135   
     22. L(O   0,H   2,O  15,H   8, 1) 180.8470         0.208180   
     23. L(O   0,H   2,O  15,H   8, 2) 179.2123         0.208180   
     24. A(H   4,O   3,H  17)          118.0709         0.208180   
     25. A(H   4,O   3,H   5)          105.1878         0.318783   
     26. A(H   5,O   3,H  17)          118.0679         0.210135   
     27. L(O   3,H   4,O   9,H  17, 1) 180.8470         0.208180   
     28. L(O   3,H   4,O   9,H  17, 2) 179.2123         0.208180   
     29. A(H   7,O   6,H   8)          105.1877         0.318783   
     30. A(H   8,O   6,H  14)          118.0709         0.208180   
     31. A(H   7,O   6,H  14)          118.0679         0.210135   
     32. L(O   0,H   8,O   6,H  14, 2) 179.2125         0.208180   
     33. L(O   0,H   8,O   6,H  14, 1) 180.8470         0.208180   
     34. A(H   4,O   9,H  11)          118.0679         0.210135   
     35. A(H   4,O   9,H  10)          118.0709         0.208180   
     36. A(H  10,O   9,H  11)          105.1878         0.318783   
     37. L(O   9,H  10,O  12,H   4, 2) 180.7875         0.208180   
     38. L(O   9,H  10,O  12,H   4, 1) 180.8470         0.208180   
     39. A(H  10,O  12,H  14)          118.0709         0.208180   
     40. A(H  10,O  12,H  13)          118.0679         0.210135   
     41. A(H  13,O  12,H  14)          105.1878         0.318783   
     42. L(O   6,H  14,O  12,H  10, 2) 180.7877         0.208180   
     43. L(O   6,H  14,O  12,H  10, 1) 180.8470         0.208180   
     44. A(H   2,O  15,H  17)          118.0709         0.208180   
     45. A(H   2,O  15,H  16)          118.0679         0.210135   
     46. A(H  16,O  15,H  17)          105.1877         0.318783   
     47. L(O   3,H  17,O  15,H   2, 2) 179.2125         0.208180   
     48. L(O   3,H  17,O  15,H   2, 1) 180.8470         0.208180   
     49. D(H  14,O   6,O   0,H   1)    107.3428         0.001501   
     50. D(H  14,O   6,O   0,H   2)    -21.3696         0.001501   
     51. D(H   7,O   6,O   0,H   1)   -118.5759         0.001501   
     52. D(H   7,O   6,O   0,H   2)    112.7117         0.001501   
     53. D(H  10,O   9,O   3,H  17)     21.3696         0.001501   
     54. D(H  10,O   9,O   3,H   5)   -112.7118         0.001501   
     55. D(H  11,O   9,O   3,H   5)    118.5759         0.001501   
     56. D(H  11,O   9,O   3,H  17)   -107.3427         0.001501   
     57. D(H  13,O  12,O   9,H   4)    107.3427         0.001501   
     58. D(H  13,O  12,O   9,H  11)   -118.5759         0.001501   
     59. D(H  10,O  12,O   6,H   8)     21.3696         0.001501   
     60. D(H  10,O  12,O   6,H   7)   -107.3427         0.001501   
     61. D(H  13,O  12,O   6,H   8)   -112.7118         0.001501   
     62. D(H  14,O  12,O   9,H  11)    112.7117         0.001501   
     63. D(H  13,O  12,O   6,H   7)    118.5760         0.001501   
     64. D(H  14,O  12,O   9,H   4)    -21.3696         0.001501   
     65. D(H   2,O  15,O   3,H   5)    107.3428         0.001501   
     66. D(H  16,O  15,O   3,H   5)   -118.5758         0.001501   
     67. D(H  16,O  15,O   3,H   4)    112.7118         0.001501   
     68. D(H  17,O  15,O   0,H   8)     21.3696         0.001501   
     69. D(H  17,O  15,O   0,H   1)   -112.7118         0.001501   
     70. D(H   2,O  15,O   3,H   4)    -21.3696         0.001501   
     71. D(H  16,O  15,O   0,H   8)   -107.3427         0.001501   
     72. D(H  16,O  15,O   0,H   1)    118.5759         0.001501   
    -----------------------------------------------------------------

Number of atoms                         .... 18
Number of degrees of freedom            .... 72

         *************************************************************
         *                GEOMETRY OPTIMIZATION CYCLE   1            *
         *************************************************************
---------------------------------
CARTESIAN COORDINATES (ANGSTROEM)
---------------------------------
  O      0.000000    2.709181    0.148099
  H     -0.122498    3.233153    0.940879
  H     -0.836919    2.216592    0.034772
  O     -2.346219   -1.354590    0.148099
  H     -1.501165   -1.833089    0.034772
  H     -2.738743   -1.722662    0.940879
  O      2.346220    1.354591   -0.148098
  H      2.738743    1.722663   -0.940878
  H      1.501165    1.833090   -0.034772
  O      0.000000   -2.709181   -0.148098
  H      0.836920   -2.216591   -0.034772
  H      0.122498   -3.233152   -0.940878
  O      2.346220   -1.354590    0.148099
  H      2.861241   -1.510489    0.940879
  H      2.338085   -0.383502    0.034772
  O     -2.346219    1.354591   -0.148098
  H     -2.861241    1.510490   -0.940878
  H     -2.338084    0.383502   -0.034772

----------------------------
CARTESIAN COORDINATES (A.U.)
----------------------------
  NO LB      ZA    FRAG     MASS         X           Y           Z
   0 O     8.0000    0    15.999    0.000000    5.119610    0.279867
   1 H     1.0000    0     1.008   -0.231488    6.109774    1.778004
   2 H     1.0000    0     1.008   -1.581548    4.188752    0.065710
   3 O     8.0000    0    15.999   -4.433711   -2.559804    0.279867
   4 H     1.0000    0     1.008   -2.836791   -3.464036    0.065710
   5 H     1.0000    0     1.008   -5.175474   -3.255359    1.778004
   6 O     8.0000    0    15.999    4.433713    2.559806   -0.279865
   7 H     1.0000    0     1.008    5.175474    3.255361   -1.778002
   8 H     1.0000    0     1.008    2.836791    3.464038   -0.065710
   9 O     8.0000    0    15.999    0.000000   -5.119610   -0.279865
  10 H     1.0000    0     1.008    1.581550   -4.188750   -0.065710
  11 H     1.0000    0     1.008    0.231488   -6.109772   -1.778002
  12 O     8.0000    0    15.999    4.433713   -2.559804    0.279867
  13 H     1.0000    0     1.008    5.406962   -2.854411    1.778004
  14 H     1.0000    0     1.008    4.418340   -0.724714    0.065710
  15 O     8.0000    0    15.999   -4.433711    2.559806   -0.279865
  16 H     1.0000    0     1.008   -5.406962    2.854412   -1.778002
  17 H     1.0000    0     1.008   -4.418338    0.724714   -0.065710

--------------------------------
INTERNAL COORDINATES (ANGSTROEM)
--------------------------------
 O      0   0   0     0.000000000000     0.00000000     0.00000000
 H      1   0   0     0.958150585862     0.00000000     0.00000000
 H      1   2   0     0.977711790054   105.18781736     0.00000000
 O      3   1   2     3.878681525474   142.52143282   247.82102299
 H      4   3   1     0.977711902784    96.36667252   339.89067784
 H      4   3   1     0.958150414163   122.49877551    92.44971867
 O      1   2   3     2.725324754834   118.15109370   225.39579020
 H      7   1   2     0.958150004495   104.57634301   241.42412740
 H      7   1   2     0.977712651193     0.63329954    76.51804352
 O      5   4   3     1.747705634994   179.01235653   141.32391584
 H     10   5   4     0.977713033960   118.07085768   232.04877984
 H     10   5   4     0.958150039005   118.06791005   103.67031070
 O     11  10   5     1.747705357502   179.01239509   210.64869987
 H     13  11  10     0.958149913658   118.06793374   256.33548560
 H     13  11  10     0.977712171806   118.07087130   127.95692155
 O      3   1   2     1.747705252868   179.01234488    15.13405571
 H     16   3   1     0.958150451174   118.06794621   103.66965614
 H     16   3   1     0.977713049121   118.07088973   232.04815538

---------------------------
INTERNAL COORDINATES (A.U.)
---------------------------
 O      0   0   0     0.000000000000     0.00000000     0.00000000
 H      1   0   0     1.810642202336     0.00000000     0.00000000
 H      1   2   0     1.847607521108   105.18781736     0.00000000
 O      3   1   2     7.329645843846   142.52143282   247.82102299
 H      4   3   1     1.847607734137    96.36667252   339.89067784
 H      4   3   1     1.810641877871   122.49877551    92.44971867
 O      1   2   3     5.150117412632   118.15109370   225.39579020
 H      7   1   2     1.810641103710   104.57634301   241.42412740
 H      7   1   2     1.847609148424     0.63329954    76.51804352
 O      5   4   3     3.302685012849   179.01235653   141.32391584
 H     10   5   4     1.847609871750   118.07085768   232.04877984
 H     10   5   4     1.810641168925   118.06791005   103.67031070
 O     11  10   5     3.302684488466   179.01239509   210.64869987
 H     13  11  10     1.810640932053   118.06793374   256.33548560
 H     13  11  10     1.847608242515   118.07087130   127.95692155
 O      3   1   2     3.302684290735   179.01234488    15.13405571
 H     16   3   1     1.810641947812   118.06794621   103.66965614
 H     16   3   1     1.847609900400   118.07088973   232.04815538

---------------------
BASIS SET INFORMATION
---------------------
There are 2 groups of distinct atoms

 Group   1 Type O   : 19s6p3d2f contracted to 5s4p3d2f pattern {88111/3111/111/11}
 Group   2 Type H   : 6s3p2d contracted to 4s3p2d pattern {3111/111/11}

Atom   0O    basis set group =>   1
Atom   1H    basis set group =>   2
Atom   2H    basis set group =>   2
Atom   3O    basis set group =>   1
Atom   4H    basis set group =>   2
Atom   5H    basis set group =>   2
Atom   6O    basis set group =>   1
Atom   7H    basis set group =>   2
Atom   8H    basis set group =>   2
Atom   9O    basis set group =>   1
Atom  10H    basis set group =>   2
Atom  11H    basis set group =>   2
Atom  12O    basis set group =>   1
Atom  13H    basis set group =>   2
Atom  14H    basis set group =>   2
Atom  15O    basis set group =>   1
Atom  16H    basis set group =>   2
Atom  17H    basis set group =>   2
---------------------------------
AUXILIARY/J BASIS SET INFORMATION
---------------------------------
There are 2 groups of distinct atoms

 Group   1 Type O   : 12s5p4d2f1g contracted to 6s4p3d1f1g pattern {711111/2111/211/2/1}
 Group   2 Type H   : 5s2p1d contracted to 3s1p1d pattern {311/2/1}

Atom   0O    basis set group =>   1
Atom   1H    basis set group =>   2
Atom   2H    basis set group =>   2
Atom   3O    basis set group =>   1
Atom   4H    basis set group =>   2
Atom   5H    basis set group =>   2
Atom   6O    basis set group =>   1
Atom   7H    basis set group =>   2
Atom   8H    basis set group =>   2
Atom   9O    basis set group =>   1
Atom  10H    basis set group =>   2
Atom  11H    basis set group =>   2
Atom  12O    basis set group =>   1
Atom  13H    basis set group =>   2
Atom  14H    basis set group =>   2
Atom  15O    basis set group =>   1
Atom  16H    basis set group =>   2
Atom  17H    basis set group =>   2


           ************************************************************
           *        Program running with 24 parallel MPI-processes    *
           *              working on a common directory               *
           ************************************************************
------------------------------------------------------------------------------
                           ORCA GTO INTEGRAL CALCULATION
                           -- RI-GTO INTEGRALS CHOSEN --
------------------------------------------------------------------------------

                         BASIS SET STATISTICS AND STARTUP INFO

Gaussian basis set:
 # of primitive gaussian shells          ...  312
 # of primitive gaussian functions       ...  696
 # of contracted shells                  ...  192
 # of contracted basis functions         ...  552
 Highest angular momentum                ...    3
 Maximum contraction depth               ...    8
Auxiliary gaussian basis set:
 # of primitive gaussian shells          ...  240
 # of primitive gaussian functions       ...  612
 # of contracted shells                  ...  150
 # of contracted aux-basis functions     ...  426
 Highest angular momentum                ...    4
 Maximum contraction depth               ...    7
Ratio of auxiliary to basis functions    ...  0.77
Integral package used                  ... LIBINT
 One Electron integrals                  ... done
 Ordering auxiliary basis shells         ... done
 Integral threshhold             Thresh  ...  2.500e-11
 Primitive cut-off               TCut    ...  2.500e-12
 Pre-screening matrix                    ... done
 Shell pair data                         ... 
 Ordering of the shell pairs             ... done (   0.003 sec) 16451 of 18528 pairs
 Determination of significant pairs      ... done (   0.000 sec)
 Creation of shell pair data             ... done (   0.002 sec)
 Storage of shell pair data              ... done (   0.008 sec)
 Shell pair data done in (   0.013 sec)
 Computing two index integrals           ... done
 Cholesky decomposition of the V-matrix  ... done


Timings:
 Total evaluation time                   ...   0.437 sec (  0.007 min)
 One electron matrix time                ...   0.124 sec (  0.002 min) = 28.5%
 Schwartz matrix evaluation time         ...   0.197 sec (  0.003 min) = 45.0%
 Two index repulsion integral time       ...   0.003 sec (  0.000 min) =  0.8%
 Cholesky decomposition of V             ...   0.076 sec (  0.001 min) = 17.4%
 Three index repulsion integral time     ...   0.000 sec (  0.000 min) =  0.0%



           ************************************************************
           *        Program running with 24 parallel MPI-processes    *
           *              working on a common directory               *
           ************************************************************
-------------------------------------------------------------------------------
                                 ORCA SCF
-------------------------------------------------------------------------------

------------
SCF SETTINGS
------------
Hamiltonian:
 Density Functional     Method          .... DFT(GTOs)
 Exchange Functional    Exchange        .... SCAN
 Correlation Functional Correlation     .... SCAN
 Gradients option       PostSCFGGA      .... off
   Density functional embedding theory  .... OFF
   NL short-range parameter             ....  6.400000
 RI-approximation to the Coulomb term is turned on
   Number of auxiliary basis functions  .... 426


General Settings:
 Integral files         IntName         .... 06_H2O_6_ring
 Hartree-Fock type      HFTyp           .... RHF
 Total Charge           Charge          ....    0
 Multiplicity           Mult            ....    1
 Number of Electrons    NEL             ....   60
 Basis Dimension        Dim             ....  552
 Nuclear Repulsion      ENuc            ....    268.3173414251 Eh

Convergence Acceleration:
 DIIS                   CNVDIIS         .... on
   Start iteration      DIISMaxIt       ....    12
   Startup error        DIISStart       ....  0.200000
   # of expansion vecs  DIISMaxEq       ....     5
   Bias factor          DIISBfac        ....   1.050
   Max. coefficient     DIISMaxC        ....  10.000
 Newton-Raphson         CNVNR           .... off
 SOSCF                  CNVSOSCF        .... on
   Start iteration      SOSCFMaxIt      ....   150
   Startup grad/error   SOSCFStart      ....  0.003300
 Level Shifting         CNVShift        .... on
   Level shift para.    LevelShift      ....    0.2500
   Turn off err/grad.   ShiftErr        ....    0.0010
 Zerner damping         CNVZerner       .... off
 Static damping         CNVDamp         .... on
   Fraction old density DampFac         ....    0.7000
   Max. Damping (<1)    DampMax         ....    0.9800
   Min. Damping (>=0)   DampMin         ....    0.0000
   Turn off err/grad.   DampErr         ....    0.1000
 Fernandez-Rico         CNVRico         .... off

SCF Procedure:
 Maximum # iterations   MaxIter         ....   125
 SCF integral mode      SCFMode         .... Direct
   Integral package                     .... LIBINT
 Reset frequency        DirectResetFreq ....    20
 Integral Threshold     Thresh          ....  2.500e-11 Eh
 Primitive CutOff       TCut            ....  2.500e-12 Eh

Convergence Tolerance:
 Convergence Check Mode ConvCheckMode   .... Total+1el-Energy
 Convergence forced     ConvForced      .... 0
 Energy Change          TolE            ....  1.000e-08 Eh
 1-El. energy change                    ....  1.000e-05 Eh
 Orbital Gradient       TolG            ....  1.000e-05
 Orbital Rotation angle TolX            ....  1.000e-05
 DIIS Error             TolErr          ....  5.000e-07


Diagonalization of the overlap matrix:
Smallest eigenvalue                        ... 1.234e-04
Time for diagonalization                   ...    0.067 sec
Threshold for overlap eigenvalues          ... 1.000e-08
Number of eigenvalues below threshold      ... 0
Time for construction of square roots      ...    0.041 sec
Total time needed                          ...    0.109 sec

-------------------
DFT GRID GENERATION
-------------------

General Integration Accuracy     IntAcc      ...  4.670
Radial Grid Type                 RadialGrid  ... Gauss-Chebyshev
Angular Grid (max. acc.)         AngularGrid ... Lebedev-302
Angular grid pruning method      GridPruning ... 3 (G Style)
Weight generation scheme         WeightScheme... Becke
Basis function cutoff            BFCut       ...    1.0000e-11
Integration weight cutoff        WCut        ...    1.0000e-14
Grids for H and He will be reduced by one unit

# of grid points (after initial pruning)     ...  78000 (   0.0 sec)
# of grid points (after weights+screening)   ...  72996 (   0.0 sec)
nearest neighbour list constructed           ...    0.0 sec
Grid point re-assignment to atoms done       ...    0.0 sec
Grid point division into batches done        ...    0.2 sec
Reduced shell lists constructed in    0.2 sec

Total number of grid points                  ...    72996
Total number of batches                      ...     1152
Average number of points per batch           ...       63
Average number of grid points per atom       ...     4055
Average number of shells per batch           ...   118.88 (61.92%)
Average number of basis functions per batch  ...   321.94 (58.32%)
Average number of large shells per batch     ...    92.53 (77.84%)
Average number of large basis fcns per batch ...   241.84 (75.12%)
Maximum spatial batch extension              ...   8.81, 11.76,  8.41 au
Average spatial batch extension              ...   0.07,  0.08,  0.06 au

Time for grid setup =    0.299 sec

------------------------------
INITIAL GUESS: MODEL POTENTIAL
------------------------------
Loading Hartree-Fock densities                     ... done
Calculating cut-offs                               ... done
Setting up the integral package                    ... done
Initializing the effective Hamiltonian             ... done
Starting the Coulomb interaction                   ... done (   0.0 sec)
Reading the grid                                   ... done
Mapping shells                                     ... done
Starting the XC term evaluation                    ... done (   0.1 sec)
  promolecular density results
     # of electrons  =     59.994135459
     EX              =    -57.916972961
     EC              =     -0.963454711
     EX+EC           =    -58.880427671
Transforming the Hamiltonian                       ... done (   0.0 sec)
Diagonalizing the Hamiltonian                      ... done (   0.0 sec)
Back transforming the eigenvectors                 ... done (   0.0 sec)
Now organizing SCF variables                       ... done
                      ------------------
                      INITIAL GUESS DONE (   0.6 sec)
                      ------------------
--------------
SCF ITERATIONS
--------------
ITER       Energy         Delta-E        Max-DP      RMS-DP      [F,P]     Damp
               ***  Starting incremental Fock matrix formation  ***
  0   -457.3790005501   0.000000000000 0.07101060  0.00105110  0.5491083 0.7000
  1   -458.0132316403  -0.634231090173 0.02970777  0.00052545  0.2230427 0.7000
                               ***Turning on DIIS***
  2   -458.2043269653  -0.191095324960 0.03517112  0.00061645  0.0563653 0.0000
  3   -458.5648951600  -0.360568194682 0.00541945  0.00010854  0.1189430 0.7000
  4   -458.5904515706  -0.025556410623 0.01771929  0.00035148  0.0905143 0.0000
                      *** Initiating the SOSCF procedure ***
                           *** Shutting down DIIS ***
                      *** Re-Reading the Fockian *** 
                      *** Removing any level shift *** 
ITER      Energy       Delta-E        Grad      Rot      Max-DP    RMS-DP
  5   -458.63502862  -0.0445770471  0.001582  0.001582  0.004506  0.000057
               *** Restarting incremental Fock matrix formation ***
  6   -458.63522276  -0.0001941445  0.000602  0.001703  0.002854  0.000047
  7   -458.63525292  -0.0000301612  0.000124  0.000227  0.000395  0.000006
  8   -458.63525420  -0.0000012733  0.000061  0.000105  0.000279  0.000004
  9   -458.63525473  -0.0000005343  0.000038  0.000066  0.000063  0.000001
 10   -458.63525472   0.0000000113  0.000039  0.000042  0.000050  0.000001
                  ***Gradient check signals convergence***
              ***Rediagonalizing the Fockian in SOSCF/NRSCF***

               *****************************************************
               *                     SUCCESS                       *
               *           SCF CONVERGED AFTER  11 CYCLES          *
               *****************************************************


----------------
TOTAL SCF ENERGY
----------------

Total Energy       :         -458.63525478 Eh          -12480.09976 eV

Components:
Nuclear Repulsion  :          268.31734143 Eh            7301.28605 eV
Electronic Energy  :         -726.95259621 Eh          -19781.38581 eV
One Electron Energy:        -1165.06468842 Eh          -31703.02192 eV
Two Electron Energy:          438.11209221 Eh           11921.63611 eV

Virial components:
Potential Energy   :         -914.84212634 Eh          -24894.11985 eV
Kinetic Energy     :          456.20687156 Eh           12414.02009 eV
Virial Ratio       :            2.00532299


DFT components:
N(Alpha)           :       30.000007352644 electrons
N(Beta)            :       30.000007352644 electrons
N(Total)           :       60.000014705287 electrons
E(X)               :      -53.920452173748 Eh       
E(C)               :       -1.938108968519 Eh       
E(XC)              :      -55.858561142267 Eh       
DFET-embed. en.    :        0.000000000000 Eh       

---------------
SCF CONVERGENCE
---------------

  Last Energy change         ...   -6.2743e-08  Tolerance :   1.0000e-08
  Last MAX-Density change    ...    2.3298e-06  Tolerance :   1.0000e-07
  Last RMS-Density change    ...    4.0876e-08  Tolerance :   5.0000e-09
  Last Orbital Gradient      ...    6.9094e-07  Tolerance :   1.0000e-05
  Last Orbital Rotation      ...    1.0638e-06  Tolerance :   1.0000e-05

             **** THE GBW FILE WAS UPDATED (06_H2O_6_ring.gbw) ****
             **** DENSITY FILE WAS UPDATED (06_H2O_6_ring.scfp) ****
             **** ENERGY FILE WAS UPDATED (06_H2O_6_ring.en.tmp) ****
             **** THE GBW FILE WAS UPDATED (06_H2O_6_ring.gbw) ****
             **** DENSITY FILE WAS UPDATED (06_H2O_6_ring.scfp) ****
----------------
ORBITAL ENERGIES
----------------

  NO   OCC          E(Eh)            E(eV) 
   0   2.0000     -18.954705      -515.7837 
   1   2.0000     -18.954704      -515.7837 
   2   2.0000     -18.954699      -515.7836 
   3   2.0000     -18.954698      -515.7836 
   4   2.0000     -18.954685      -515.7832 
   5   2.0000     -18.954684      -515.7832 
   6   2.0000      -0.985957       -26.8292 
   7   2.0000      -0.979979       -26.6666 
   8   2.0000      -0.979942       -26.6656 
   9   2.0000      -0.967437       -26.3253 
  10   2.0000      -0.967400       -26.3243 
  11   2.0000      -0.960814       -26.1451 
  12   2.0000      -0.495405       -13.4807 
  13   2.0000      -0.494629       -13.4595 
  14   2.0000      -0.494353       -13.4520 
  15   2.0000      -0.494315       -13.4510 
  16   2.0000      -0.494007       -13.4426 
  17   2.0000      -0.493987       -13.4421 
  18   2.0000      -0.399165       -10.8618 
  19   2.0000      -0.380538       -10.3550 
  20   2.0000      -0.380524       -10.3546 
  21   2.0000      -0.340081        -9.2541 
  22   2.0000      -0.340070        -9.2538 
  23   2.0000      -0.318779        -8.6744 
  24   2.0000      -0.280569        -7.6347 
  25   2.0000      -0.280546        -7.6340 
  26   2.0000      -0.279788        -7.6134 
  27   2.0000      -0.279735        -7.6120 
  28   2.0000      -0.279731        -7.6119 
  29   2.0000      -0.278852        -7.5879 
  30   0.0000      -0.017805        -0.4845 
  31   0.0000       0.004952         0.1348 
  32   0.0000       0.004976         0.1354 
  33   0.0000       0.022680         0.6172 
  34   0.0000       0.027626         0.7517 
  35   0.0000       0.027634         0.7520 
  36   0.0000       0.048118         1.3094 
  37   0.0000       0.054340         1.4787 
  38   0.0000       0.054351         1.4790 
  39   0.0000       0.065223         1.7748 
  40   0.0000       0.072891         1.9835 
  41   0.0000       0.072913         1.9841 
  42   0.0000       0.089659         2.4397 
  43   0.0000       0.096627         2.6294 
  44   0.0000       0.096680         2.6308 
  45   0.0000       0.098526         2.6810 
  46   0.0000       0.110927         3.0185 
  47   0.0000       0.110946         3.0190 
  48   0.0000       0.113393         3.0856 
  49   0.0000       0.124095         3.3768 
  50   0.0000       0.141256         3.8438 
  51   0.0000       0.141367         3.8468 
  52   0.0000       0.149806         4.0764 
  53   0.0000       0.149892         4.0788 
  54   0.0000       0.153029         4.1641 
  55   0.0000       0.154897         4.2150 
  56   0.0000       0.165686         4.5086 
  57   0.0000       0.165755         4.5104 
  58   0.0000       0.188134         5.1194 
  59   0.0000       0.188185         5.1208 
  60   0.0000       0.188608         5.1323 
  61   0.0000       0.188641         5.1332 
  62   0.0000       0.190206         5.1758 
  63   0.0000       0.194980         5.3057 
  64   0.0000       0.208118         5.6632 
  65   0.0000       0.208184         5.6650 
  66   0.0000       0.210949         5.7402 
  67   0.0000       0.224794         6.1170 
  68   0.0000       0.224863         6.1188 
  69   0.0000       0.229735         6.2514 
  70   0.0000       0.229779         6.2526 
  71   0.0000       0.240105         6.5336 
  72   0.0000       0.253327         6.8934 
  73   0.0000       0.277614         7.5543 
  74   0.0000       0.279317         7.6006 
  75   0.0000       0.279390         7.6026 
  76   0.0000       0.285391         7.7659 
  77   0.0000       0.285403         7.7662 
  78   0.0000       0.296268         8.0619 
  79   0.0000       0.297623         8.0987 
  80   0.0000       0.307704         8.3730 
  81   0.0000       0.307806         8.3758 
  82   0.0000       0.313952         8.5431 
  83   0.0000       0.317012         8.6263 
  84   0.0000       0.317029         8.6268 
  85   0.0000       0.322963         8.7883 
  86   0.0000       0.341800         9.3009 
  87   0.0000       0.341898         9.3035 
  88   0.0000       0.343941         9.3591 
  89   0.0000       0.344051         9.3621 
  90   0.0000       0.354120         9.6361 
  91   0.0000       0.356641         9.7047 
  92   0.0000       0.360904         9.8207 
  93   0.0000       0.361021         9.8239 
  94   0.0000       0.368121        10.0171 
  95   0.0000       0.368157        10.0181 
  96   0.0000       0.391765        10.6605 
  97   0.0000       0.391846        10.6627 
  98   0.0000       0.392734        10.6868 
  99   0.0000       0.393007        10.6943 
 100   0.0000       0.393152        10.6982 
 101   0.0000       0.401838        10.9346 
 102   0.0000       0.413162        11.2427 
 103   0.0000       0.413218        11.2442 
 104   0.0000       0.417702        11.3662 
 105   0.0000       0.417756        11.3677 
 106   0.0000       0.422018        11.4837 
 107   0.0000       0.426349        11.6015 
 108   0.0000       0.492390        13.3986 
 109   0.0000       0.492533        13.4025 
 110   0.0000       0.496878        13.5207 
 111   0.0000       0.498994        13.5783 
 112   0.0000       0.501778        13.6541 
 113   0.0000       0.501824        13.6553 
 114   0.0000       0.508569        13.8389 
 115   0.0000       0.553665        15.0660 
 116   0.0000       0.561673        15.2839 
 117   0.0000       0.561788        15.2870 
 118   0.0000       0.571499        15.5513 
 119   0.0000       0.571561        15.5530 
 120   0.0000       0.598646        16.2900 
 121   0.0000       0.602559        16.3965 
 122   0.0000       0.609266        16.5790 
 123   0.0000       0.609481        16.5848 
 124   0.0000       0.640678        17.4337 
 125   0.0000       0.647732        17.6257 
 126   0.0000       0.648015        17.6334 
 127   0.0000       0.658806        17.9270 
 128   0.0000       0.658909        17.9298 
 129   0.0000       0.666961        18.1489 
 130   0.0000       0.685478        18.6528 
 131   0.0000       0.685694        18.6587 
 132   0.0000       0.700700        19.0670 
 133   0.0000       0.700730        19.0678 
 134   0.0000       0.710825        19.3425 
 135   0.0000       0.710842        19.3430 
 136   0.0000       0.711410        19.3585 
 137   0.0000       0.722099        19.6493 
 138   0.0000       0.733747        19.9663 
 139   0.0000       0.764311        20.7980 
 140   0.0000       0.764369        20.7995 
 141   0.0000       0.782643        21.2968 
 142   0.0000       0.782747        21.2996 
 143   0.0000       0.783152        21.3107 
 144   0.0000       0.797240        21.6940 
 145   0.0000       0.808453        21.9991 
 146   0.0000       0.808626        22.0038 
 147   0.0000       0.830308        22.5938 
 148   0.0000       0.830472        22.5983 
 149   0.0000       0.840158        22.8619 
 150   0.0000       0.851098        23.1596 
 151   0.0000       0.851184        23.1619 
 152   0.0000       0.852858        23.2074 
 153   0.0000       0.853011        23.2116 
 154   0.0000       0.859180        23.3795 
 155   0.0000       0.867009        23.5925 
 156   0.0000       0.879996        23.9459 
 157   0.0000       0.880002        23.9461 
 158   0.0000       0.883625        24.0447 
 159   0.0000       0.896322        24.3902 
 160   0.0000       0.902922        24.5697 
 161   0.0000       0.903079        24.5740 
 162   0.0000       0.917349        24.9623 
 163   0.0000       0.920609        25.0510 
 164   0.0000       0.920734        25.0544 
 165   0.0000       0.937955        25.5231 
 166   0.0000       0.945689        25.7335 
 167   0.0000       0.948143        25.8003 
 168   0.0000       0.948264        25.8036 
 169   0.0000       0.956585        26.0300 
 170   0.0000       0.956687        26.0328 
 171   0.0000       0.972922        26.4746 
 172   0.0000       0.973084        26.4790 
 173   0.0000       0.975671        26.5494 
 174   0.0000       0.976494        26.5717 
 175   0.0000       0.976610        26.5749 
 176   0.0000       0.996837        27.1253 
 177   0.0000       1.023316        27.8458 
 178   0.0000       1.023489        27.8505 
 179   0.0000       1.040927        28.3251 
 180   0.0000       1.054835        28.7035 
 181   0.0000       1.073763        29.2186 
 182   0.0000       1.084263        29.5043 
 183   0.0000       1.084330        29.5061 
 184   0.0000       1.097788        29.8723 
 185   0.0000       1.097910        29.8757 
 186   0.0000       1.100523        29.9467 
 187   0.0000       1.109409        30.1885 
 188   0.0000       1.118043        30.4235 
 189   0.0000       1.139229        31.0000 
 190   0.0000       1.139328        31.0027 
 191   0.0000       1.143496        31.1161 
 192   0.0000       1.143615        31.1194 
 193   0.0000       1.159622        31.5549 
 194   0.0000       1.159667        31.5561 
 195   0.0000       1.164565        31.6894 
 196   0.0000       1.177443        32.0399 
 197   0.0000       1.177905        32.0524 
 198   0.0000       1.183757        32.2117 
 199   0.0000       1.183924        32.2162 
 200   0.0000       1.228534        33.4301 
 201   0.0000       1.228917        33.4405 
 202   0.0000       1.228923        33.4407 
 203   0.0000       1.229084        33.4451 
 204   0.0000       1.245621        33.8951 
 205   0.0000       1.252863        34.0921 
 206   0.0000       1.274444        34.6794 
 207   0.0000       1.274599        34.6836 
 208   0.0000       1.287917        35.0460 
 209   0.0000       1.291975        35.1564 
 210   0.0000       1.292152        35.1612 
 211   0.0000       1.295794        35.2603 
 212   0.0000       1.296235        35.2723 
 213   0.0000       1.303814        35.4786 
 214   0.0000       1.339876        36.4599 
 215   0.0000       1.340100        36.4660 
 216   0.0000       1.341387        36.5010 
 217   0.0000       1.341712        36.5099 
 218   0.0000       1.353621        36.8339 
 219   0.0000       1.412585        38.4384 
 220   0.0000       1.417703        38.5777 
 221   0.0000       1.417854        38.5818 
 222   0.0000       1.418044        38.5869 
 223   0.0000       1.428039        38.8589 
 224   0.0000       1.428289        38.8657 
 225   0.0000       1.455321        39.6013 
 226   0.0000       1.462759        39.8037 
 227   0.0000       1.463238        39.8167 
 228   0.0000       1.476254        40.1709 
 229   0.0000       1.490927        40.5702 
 230   0.0000       1.494636        40.6711 
 231   0.0000       1.494879        40.6777 
 232   0.0000       1.506558        40.9955 
 233   0.0000       1.506633        40.9976 
 234   0.0000       1.575745        42.8782 
 235   0.0000       1.576272        42.8925 
 236   0.0000       1.586901        43.1818 
 237   0.0000       1.603142        43.6237 
 238   0.0000       1.603308        43.6282 
 239   0.0000       1.637916        44.5699 
 240   0.0000       1.666619        45.3510 
 241   0.0000       1.666798        45.3559 
 242   0.0000       1.666932        45.3595 
 243   0.0000       1.666936        45.3596 
 244   0.0000       1.683526        45.8111 
 245   0.0000       1.704726        46.3879 
 246   0.0000       1.705156        46.3996 
 247   0.0000       1.709575        46.5199 
 248   0.0000       1.711713        46.5781 
 249   0.0000       1.711765        46.5795 
 250   0.0000       1.739570        47.3361 
 251   0.0000       1.740803        47.3697 
 252   0.0000       1.762515        47.9605 
 253   0.0000       1.762549        47.9614 
 254   0.0000       1.805238        49.1230 
 255   0.0000       1.820924        49.5499 
 256   0.0000       1.821053        49.5534 
 257   0.0000       1.835945        49.9586 
 258   0.0000       1.876395        51.0593 
 259   0.0000       1.902450        51.7683 
 260   0.0000       1.902572        51.7716 
 261   0.0000       1.909920        51.9716 
 262   0.0000       1.910080        51.9759 
 263   0.0000       1.917724        52.1839 
 264   0.0000       1.976261        53.7768 
 265   0.0000       1.976422        53.7812 
 266   0.0000       2.003397        54.5152 
 267   0.0000       2.003527        54.5188 
 268   0.0000       2.023366        55.0586 
 269   0.0000       2.058551        56.0160 
 270   0.0000       2.113842        57.5206 
 271   0.0000       2.160365        58.7865 
 272   0.0000       2.160882        58.8006 
 273   0.0000       2.170562        59.0640 
 274   0.0000       2.170835        59.0714 
 275   0.0000       2.182337        59.3844 
 276   0.0000       2.246051        61.1182 
 277   0.0000       2.246235        61.1232 
 278   0.0000       2.250393        61.2363 
 279   0.0000       2.262220        61.5581 
 280   0.0000       2.274990        61.9056 
 281   0.0000       2.303789        62.6893 
 282   0.0000       2.308054        62.8053 
 283   0.0000       2.308334        62.8130 
 284   0.0000       2.308485        62.8171 
 285   0.0000       2.311954        62.9115 
 286   0.0000       2.312042        62.9139 
 287   0.0000       2.348582        63.9082 
 288   0.0000       2.350610        63.9634 
 289   0.0000       2.350833        63.9694 
 290   0.0000       2.388366        64.9908 
 291   0.0000       2.388645        64.9983 
 292   0.0000       2.391434        65.0742 
 293   0.0000       2.391625        65.0794 
 294   0.0000       2.403953        65.4149 
 295   0.0000       2.419097        65.8270 
 296   0.0000       2.419651        65.8420 
 297   0.0000       2.440104        66.3986 
 298   0.0000       2.459010        66.9131 
 299   0.0000       2.479646        67.4746 
 300   0.0000       2.480282        67.4919 
 301   0.0000       2.496354        67.9292 
 302   0.0000       2.501667        68.0738 
 303   0.0000       2.502265        68.0901 
 304   0.0000       2.537949        69.0611 
 305   0.0000       2.538370        69.0726 
 306   0.0000       2.539654        69.1075 
 307   0.0000       2.577322        70.1325 
 308   0.0000       2.577713        70.1431 
 309   0.0000       2.610488        71.0350 
 310   0.0000       2.624506        71.4164 
 311   0.0000       2.624598        71.4189 
 312   0.0000       2.628180        71.5164 
 313   0.0000       2.631378        71.6034 
 314   0.0000       2.631576        71.6088 
 315   0.0000       2.676782        72.8389 
 316   0.0000       2.687073        73.1190 
 317   0.0000       2.687572        73.1325 
 318   0.0000       2.688063        73.1459 
 319   0.0000       2.704868        73.6032 
 320   0.0000       2.705197        73.6122 
 321   0.0000       2.739459        74.5445 
 322   0.0000       2.768149        75.3252 
 323   0.0000       2.768555        75.3362 
 324   0.0000       2.788822        75.8877 
 325   0.0000       2.791338        75.9562 
 326   0.0000       2.791593        75.9631 
 327   0.0000       2.842460        77.3473 
 328   0.0000       2.843044        77.3631 
 329   0.0000       2.844486        77.4024 
 330   0.0000       2.844920        77.4142 
 331   0.0000       2.847907        77.4955 
 332   0.0000       2.884967        78.5039 
 333   0.0000       2.914835        79.3167 
 334   0.0000       2.915020        79.3217 
 335   0.0000       2.923018        79.5394 
 336   0.0000       2.946523        80.1790 
 337   0.0000       2.955326        80.4185 
 338   0.0000       2.955485        80.4228 
 339   0.0000       2.979399        81.0736 
 340   0.0000       2.979910        81.0875 
 341   0.0000       2.988881        81.3316 
 342   0.0000       3.025517        82.3285 
 343   0.0000       3.026015        82.3421 
 344   0.0000       3.087374        84.0117 
 345   0.0000       3.087520        84.0157 
 346   0.0000       3.123698        85.0002 
 347   0.0000       3.140043        85.4449 
 348   0.0000       3.653632        99.4204 
 349   0.0000       3.653755        99.4237 
 350   0.0000       3.654360        99.4402 
 351   0.0000       3.667549        99.7991 
 352   0.0000       3.674716        99.9941 
 353   0.0000       3.674864        99.9981 
 354   0.0000       3.934250       107.0564 
 355   0.0000       3.934442       107.0616 
 356   0.0000       3.945618       107.3657 
 357   0.0000       3.945950       107.3748 
 358   0.0000       3.963852       107.8619 
 359   0.0000       3.964304       107.8742 
 360   0.0000       3.980785       108.3227 
 361   0.0000       4.003691       108.9460 
 362   0.0000       4.003834       108.9499 
 363   0.0000       4.007473       109.0489 
 364   0.0000       4.043604       110.0321 
 365   0.0000       4.043733       110.0356 
 366   0.0000       4.084267       111.1386 
 367   0.0000       4.093178       111.3810 
 368   0.0000       4.106615       111.7467 
 369   0.0000       4.106684       111.7486 
 370   0.0000       4.107954       111.7831 
 371   0.0000       4.108024       111.7850 
 372   0.0000       4.121177       112.1429 
 373   0.0000       4.133291       112.4726 
 374   0.0000       4.133524       112.4789 
 375   0.0000       4.134081       112.4941 
 376   0.0000       4.134131       112.4954 
 377   0.0000       4.168772       113.4381 
 378   0.0000       4.189909       114.0132 
 379   0.0000       4.195890       114.1760 
 380   0.0000       4.196048       114.1803 
 381   0.0000       4.231325       115.1402 
 382   0.0000       4.231475       115.1443 
 383   0.0000       4.318771       117.5197 
 384   0.0000       4.322580       117.6234 
 385   0.0000       4.324693       117.6809 
 386   0.0000       4.324819       117.6843 
 387   0.0000       4.341028       118.1254 
 388   0.0000       4.356608       118.5493 
 389   0.0000       4.356842       118.5557 
 390   0.0000       4.396645       119.6388 
 391   0.0000       4.427089       120.4672 
 392   0.0000       4.428918       120.5170 
 393   0.0000       4.429170       120.5238 
 394   0.0000       4.452647       121.1627 
 395   0.0000       4.452903       121.1697 
 396   0.0000       4.492823       122.2559 
 397   0.0000       4.492946       122.2593 
 398   0.0000       4.498937       122.4223 
 399   0.0000       4.499047       122.4253 
 400   0.0000       4.502816       122.5278 
 401   0.0000       4.505855       122.6106 
 402   0.0000       4.525407       123.1426 
 403   0.0000       4.534329       123.3854 
 404   0.0000       4.534527       123.3908 
 405   0.0000       4.552857       123.8895 
 406   0.0000       4.552999       123.8934 
 407   0.0000       4.558597       124.0457 
 408   0.0000       4.568977       124.3282 
 409   0.0000       4.569290       124.3367 
 410   0.0000       4.596807       125.0855 
 411   0.0000       4.616650       125.6254 
 412   0.0000       4.617023       125.6356 
 413   0.0000       4.633506       126.0841 
 414   0.0000       4.712461       128.2326 
 415   0.0000       4.718340       128.3926 
 416   0.0000       4.718416       128.3946 
 417   0.0000       4.723591       128.5354 
 418   0.0000       4.723739       128.5395 
 419   0.0000       4.802504       130.6828 
 420   0.0000       4.867702       132.4569 
 421   0.0000       4.881041       132.8199 
 422   0.0000       4.881287       132.8266 
 423   0.0000       4.902032       133.3911 
 424   0.0000       4.959671       134.9595 
 425   0.0000       4.959970       134.9676 
 426   0.0000       4.998162       136.0069 
 427   0.0000       5.023167       136.6873 
 428   0.0000       5.023540       136.6975 
 429   0.0000       5.042625       137.2168 
 430   0.0000       5.050244       137.4241 
 431   0.0000       5.050710       137.4368 
 432   0.0000       5.087566       138.4397 
 433   0.0000       5.127724       139.5325 
 434   0.0000       5.136320       139.7664 
 435   0.0000       5.136401       139.7686 
 436   0.0000       5.192153       141.2857 
 437   0.0000       5.192206       141.2871 
 438   0.0000       5.198618       141.4616 
 439   0.0000       5.237388       142.5166 
 440   0.0000       5.237786       142.5274 
 441   0.0000       5.238786       142.5546 
 442   0.0000       5.247162       142.7825 
 443   0.0000       5.247399       142.7890 
 444   0.0000       5.265350       143.2775 
 445   0.0000       5.289030       143.9218 
 446   0.0000       5.289184       143.9260 
 447   0.0000       5.351892       145.6324 
 448   0.0000       5.352030       145.6361 
 449   0.0000       5.391055       146.6981 
 450   0.0000       5.526939       150.3957 
 451   0.0000       5.533979       150.5872 
 452   0.0000       5.534494       150.6012 
 453   0.0000       5.549285       151.0037 
 454   0.0000       5.549433       151.0078 
 455   0.0000       5.560346       151.3047 
 456   0.0000       5.724090       155.7604 
 457   0.0000       5.724431       155.7697 
 458   0.0000       5.727314       155.8481 
 459   0.0000       5.727628       155.8567 
 460   0.0000       5.740708       156.2126 
 461   0.0000       5.758861       156.7066 
 462   0.0000       6.108023       166.2077 
 463   0.0000       6.168214       167.8456 
 464   0.0000       6.168316       167.8484 
 465   0.0000       6.203188       168.7973 
 466   0.0000       6.203307       168.8006 
 467   0.0000       6.204480       168.8325 
 468   0.0000       6.308747       171.6697 
 469   0.0000       6.311948       171.7568 
 470   0.0000       6.312051       171.7596 
 471   0.0000       6.315980       171.8666 
 472   0.0000       6.316051       171.8685 
 473   0.0000       6.329459       172.2333 
 474   0.0000       6.634842       180.5432 
 475   0.0000       6.642025       180.7387 
 476   0.0000       6.642325       180.7469 
 477   0.0000       6.678328       181.7266 
 478   0.0000       6.697763       182.2554 
 479   0.0000       6.697896       182.2590 
 480   0.0000       6.726202       183.0293 
 481   0.0000       6.726611       183.0404 
 482   0.0000       6.738677       183.3687 
 483   0.0000       6.826482       185.7580 
 484   0.0000       6.826593       185.7610 
 485   0.0000       6.890433       187.4982 
 486   0.0000       6.941025       188.8749 
 487   0.0000       6.970677       189.6818 
 488   0.0000       6.970843       189.6863 
 489   0.0000       6.979548       189.9232 
 490   0.0000       6.984336       190.0534 
 491   0.0000       6.984514       190.0583 
 492   0.0000       7.008258       190.7044 
 493   0.0000       7.016885       190.9392 
 494   0.0000       7.023959       191.1316 
 495   0.0000       7.024090       191.1352 
 496   0.0000       7.026899       191.2116 
 497   0.0000       7.027143       191.2183 
 498   0.0000       7.044050       191.6783 
 499   0.0000       7.075448       192.5327 
 500   0.0000       7.075647       192.5381 
 501   0.0000       7.082982       192.7377 
 502   0.0000       7.133909       194.1235 
 503   0.0000       7.140338       194.2985 
 504   0.0000       7.140381       194.2997 
 505   0.0000       7.142809       194.3657 
 506   0.0000       7.142929       194.3690 
 507   0.0000       7.175929       195.2669 
 508   0.0000       7.176091       195.2714 
 509   0.0000       7.183898       195.4838 
 510   0.0000       7.211884       196.2453 
 511   0.0000       7.212082       196.2507 
 512   0.0000       7.242368       197.0749 
 513   0.0000       7.244365       197.1292 
 514   0.0000       7.244516       197.1333 
 515   0.0000       7.281057       198.1276 
 516   0.0000       7.315845       199.0743 
 517   0.0000       7.316142       199.0823 
 518   0.0000       7.356256       200.1739 
 519   0.0000       7.401100       201.3942 
 520   0.0000       7.401229       201.3977 
 521   0.0000       7.406934       201.5529 
 522   0.0000       7.483322       203.6315 
 523   0.0000       7.541435       205.2129 
 524   0.0000       7.541483       205.2142 
 525   0.0000       7.597845       206.7479 
 526   0.0000       7.598077       206.7542 
 527   0.0000       7.614181       207.1924 
 528   0.0000       7.763396       211.2527 
 529   0.0000       7.770702       211.4515 
 530   0.0000       7.770862       211.4559 
 531   0.0000       7.779560       211.6926 
 532   0.0000       7.779749       211.6977 
 533   0.0000       7.794265       212.0927 
 534   0.0000       7.815921       212.6820 
 535   0.0000       7.820834       212.8157 
 536   0.0000       7.821029       212.8210 
 537   0.0000       7.902488       215.0376 
 538   0.0000       7.902652       215.0421 
 539   0.0000       7.969142       216.8514 
 540   0.0000       8.688070       236.4144 
 541   0.0000       8.688337       236.4217 
 542   0.0000       8.688515       236.4265 
 543   0.0000       8.729744       237.5484 
 544   0.0000       8.734756       237.6848 
 545   0.0000       8.734918       237.6892 
 546   0.0000      15.647072       425.7785 
 547   0.0000      16.109102       438.3509 
 548   0.0000      16.109387       438.3587 
 549   0.0000      16.980430       462.0610 
 550   0.0000      16.980710       462.0686 
 551   0.0000      17.439615       474.5560 

                    ********************************
                    * MULLIKEN POPULATION ANALYSIS *
                    ********************************

-----------------------
MULLIKEN ATOMIC CHARGES
-----------------------
   0 O :   -0.430380
   1 H :    0.166885
   2 H :    0.263545
   3 O :   -0.428903
   4 H :    0.263476
   5 H :    0.165658
   6 O :   -0.428905
   7 H :    0.165658
   8 H :    0.263477
   9 O :   -0.430381
  10 H :    0.263546
  11 H :    0.166884
  12 O :   -0.429075
  13 H :    0.165428
  14 H :    0.263366
  15 O :   -0.429076
  16 H :    0.165429
  17 H :    0.263366
Sum of atomic charges:   -0.0000000

--------------------------------
MULLIKEN REDUCED ORBITAL CHARGES
--------------------------------
  0 O s       :     3.912711  s :     3.912711
      pz      :     1.460027  p :     4.508370
      px      :     1.489761
      py      :     1.558583
      dz2     :     0.002401  d :     0.009336
      dxz     :     0.001718
      dyz     :     0.000823
      dx2y2   :     0.002562
      dxy     :     0.001831
      f0      :    -0.000029  f :    -0.000038
      f+1     :     0.000029
      f-1     :     0.000086
      f+2     :    -0.000015
      f-2     :     0.000073
      f+3     :     0.000030
      f-3     :    -0.000211
  1 H s       :     0.707114  s :     0.707114
      pz      :     0.024890  p :     0.107265
      px      :     0.038662
      py      :     0.043713
      dz2     :     0.006493  d :     0.018737
      dxz     :     0.004339
      dyz     :     0.002512
      dx2y2   :     0.001745
      dxy     :     0.003647
  2 H s       :     0.617271  s :     0.617271
      pz      :     0.036839  p :     0.073176
      px      :     0.006791
      py      :     0.029546
      dz2     :     0.003472  d :     0.046008
      dxz     :     0.011391
      dyz     :     0.004448
      dx2y2   :     0.016994
      dxy     :     0.009703
  3 O s       :     3.912209  s :     3.912209
      pz      :     1.458905  p :     4.507379
      px      :     1.421678
      py      :     1.626796
      dz2     :     0.002394  d :     0.009339
      dxz     :     0.000630
      dyz     :     0.001858
      dx2y2   :    -0.001437
      dxy     :     0.005894
      f0      :    -0.000029  f :    -0.000024
      f+1     :    -0.000003
      f-1     :     0.000128
      f+2     :     0.000016
      f-2     :     0.000041
      f+3     :     0.000029
      f-3     :    -0.000206
  4 H s       :     0.617099  s :     0.617099
      pz      :     0.036975  p :     0.073282
      px      :    -0.002501
      py      :     0.038808
      dz2     :     0.003473  d :     0.046143
      dxz     :     0.011645
      dyz     :     0.004181
      dx2y2   :     0.017382
      dxy     :     0.009461
  5 H s       :     0.708455  s :     0.708455
      pz      :     0.024645  p :     0.107145
      px      :     0.037303
      py      :     0.045197
      dz2     :     0.006493  d :     0.018742
      dxz     :     0.002642
      dyz     :     0.004198
      dx2y2   :     0.002984
      dxy     :     0.002425
  6 O s       :     3.912210  s :     3.912210
      pz      :     1.458905  p :     4.507380
      px      :     1.421679
      py      :     1.626796
      dz2     :     0.002394  d :     0.009339
      dxz     :     0.000630
      dyz     :     0.001858
      dx2y2   :    -0.001437
      dxy     :     0.005894
      f0      :    -0.000029  f :    -0.000024
      f+1     :    -0.000003
      f-1     :     0.000128
      f+2     :     0.000016
      f-2     :     0.000041
      f+3     :     0.000029
      f-3     :    -0.000206
  7 H s       :     0.708455  s :     0.708455
      pz      :     0.024645  p :     0.107145
      px      :     0.037303
      py      :     0.045197
      dz2     :     0.006493  d :     0.018742
      dxz     :     0.002642
      dyz     :     0.004198
      dx2y2   :     0.002984
      dxy     :     0.002425
  8 H s       :     0.617099  s :     0.617099
      pz      :     0.036975  p :     0.073282
      px      :    -0.002501
      py      :     0.038808
      dz2     :     0.003473  d :     0.046143
      dxz     :     0.011645
      dyz     :     0.004181
      dx2y2   :     0.017382
      dxy     :     0.009461
  9 O s       :     3.912711  s :     3.912711
      pz      :     1.460027  p :     4.508371
      px      :     1.489761
      py      :     1.558583
      dz2     :     0.002401  d :     0.009337
      dxz     :     0.001719
      dyz     :     0.000823
      dx2y2   :     0.002562
      dxy     :     0.001831
      f0      :    -0.000029  f :    -0.000038
      f+1     :     0.000029
      f-1     :     0.000086
      f+2     :    -0.000015
      f-2     :     0.000073
      f+3     :     0.000030
      f-3     :    -0.000211
 10 H s       :     0.617270  s :     0.617270
      pz      :     0.036838  p :     0.073176
      px      :     0.006791
      py      :     0.029546
      dz2     :     0.003472  d :     0.046008
      dxz     :     0.011391
      dyz     :     0.004448
      dx2y2   :     0.016994
      dxy     :     0.009703
 11 H s       :     0.707114  s :     0.707114
      pz      :     0.024890  p :     0.107265
      px      :     0.038662
      py      :     0.043713
      dz2     :     0.006493  d :     0.018737
      dxz     :     0.004339
      dyz     :     0.002512
      dx2y2   :     0.001745
      dxy     :     0.003647
 12 O s       :     3.911841  s :     3.911841
      pz      :     1.459283  p :     4.507917
      px      :     1.661726
      py      :     1.386908
      dz2     :     0.002386  d :     0.009349
      dxz     :     0.001437
      dyz     :     0.001113
      dx2y2   :     0.005478
      dxy     :    -0.001065
      f0      :    -0.000029  f :    -0.000032
      f+1     :     0.000150
      f-1     :    -0.000034
      f+2     :     0.000083
      f-2     :    -0.000025
      f+3     :     0.000029
      f-3     :    -0.000204
 13 H s       :     0.708334  s :     0.708334
      pz      :     0.024910  p :     0.107480
      px      :     0.047801
      py      :     0.034769
      dz2     :     0.006502  d :     0.018758
      dxz     :     0.003331
      dyz     :     0.003551
      dx2y2   :     0.003353
      dxy     :     0.002022
 14 H s       :     0.617348  s :     0.617348
      pz      :     0.037025  p :     0.073278
      px      :     0.050239
      py      :    -0.013986
      dz2     :     0.003439  d :     0.046008
      dxz     :     0.000705
      dyz     :     0.015125
      dx2y2   :     0.005558
      dxy     :     0.021180
 15 O s       :     3.911842  s :     3.911842
      pz      :     1.459283  p :     4.507917
      px      :     1.661726
      py      :     1.386908
      dz2     :     0.002386  d :     0.009349
      dxz     :     0.001437
      dyz     :     0.001113
      dx2y2   :     0.005478
      dxy     :    -0.001065
      f0      :    -0.000029  f :    -0.000032
      f+1     :     0.000150
      f-1     :    -0.000034
      f+2     :     0.000083
      f-2     :    -0.000025
      f+3     :     0.000029
      f-3     :    -0.000204
 16 H s       :     0.708334  s :     0.708334
      pz      :     0.024910  p :     0.107480
      px      :     0.047801
      py      :     0.034769
      dz2     :     0.006502  d :     0.018757
      dxz     :     0.003331
      dyz     :     0.003551
      dx2y2   :     0.003353
      dxy     :     0.002022
 17 H s       :     0.617348  s :     0.617348
      pz      :     0.037025  p :     0.073278
      px      :     0.050239
      py      :    -0.013986
      dz2     :     0.003439  d :     0.046008
      dxz     :     0.000705
      dyz     :     0.015125
      dx2y2   :     0.005558
      dxy     :     0.021180


                     *******************************
                     * LOEWDIN POPULATION ANALYSIS *
                     *******************************

----------------------
LOEWDIN ATOMIC CHARGES
----------------------
   0 O :    1.129764
   1 H :   -0.454468
   2 H :   -0.675311
   3 O :    1.129754
   4 H :   -0.675301
   5 H :   -0.454464
   6 O :    1.129754
   7 H :   -0.454465
   8 H :   -0.675300
   9 O :    1.129763
  10 H :   -0.675309
  11 H :   -0.454469
  12 O :    1.129795
  13 H :   -0.454453
  14 H :   -0.675316
  15 O :    1.129793
  16 H :   -0.454452
  17 H :   -0.675315

-------------------------------
LOEWDIN REDUCED ORBITAL CHARGES
-------------------------------
  0 O s       :     2.950325  s :     2.950325
      pz      :     1.259161  p :     3.799186
      px      :     1.262228
      py      :     1.277797
      dz2     :     0.023465  d :     0.101978
      dxz     :     0.005869
      dyz     :     0.023077
      dx2y2   :     0.016024
      dxy     :     0.033542
      f0      :     0.000830  f :     0.018747
      f+1     :     0.003227
      f-1     :     0.005142
      f+2     :     0.001870
      f-2     :     0.000944
      f+3     :     0.000726
      f-3     :     0.006008
  1 H s       :     0.580030  s :     0.580030
      pz      :     0.221233  p :     0.530381
      px      :     0.137880
      py      :     0.171268
      dz2     :     0.107417  d :     0.344056
      dxz     :     0.077438
      dyz     :     0.089262
      dx2y2   :     0.029866
      dxy     :     0.040074
  2 H s       :     0.542809  s :     0.542809
      pz      :     0.140817  p :     0.627984
      px      :     0.293597
      py      :     0.193570
      dz2     :     0.053908  d :     0.504518
      dxz     :     0.107247
      dyz     :     0.049228
      dx2y2   :     0.147985
      dxy     :     0.146150
  3 O s       :     2.950325  s :     2.950325
      pz      :     1.259088  p :     3.799170
      px      :     1.239748
      py      :     1.300333
      dz2     :     0.023472  d :     0.101984
      dxz     :     0.015291
      dyz     :     0.013665
      dx2y2   :     0.024512
      dxy     :     0.025044
      f0      :     0.000833  f :     0.018768
      f+1     :     0.003577
      f-1     :     0.004800
      f+2     :     0.000496
      f-2     :     0.002320
      f+3     :     0.000727
      f-3     :     0.006014
  4 H s       :     0.542782  s :     0.542782
      pz      :     0.140836  p :     0.628001
      px      :     0.295757
      py      :     0.191408
      dz2     :     0.053909  d :     0.504518
      dxz     :     0.123240
      dyz     :     0.033232
      dx2y2   :     0.143454
      dxy     :     0.150684
  5 H s       :     0.580093  s :     0.580093
      pz      :     0.221225  p :     0.530318
      px      :     0.148764
      py      :     0.160329
      dz2     :     0.107412  d :     0.344054
      dxz     :     0.084930
      dyz     :     0.081782
      dx2y2   :     0.039105
      dxy     :     0.030825
  6 O s       :     2.950325  s :     2.950325
      pz      :     1.259089  p :     3.799170
      px      :     1.239748
      py      :     1.300333
      dz2     :     0.023472  d :     0.101984
      dxz     :     0.015291
      dyz     :     0.013665
      dx2y2   :     0.024512
      dxy     :     0.025044
      f0      :     0.000833  f :     0.018768
      f+1     :     0.003577
      f-1     :     0.004800
      f+2     :     0.000496
      f-2     :     0.002320
      f+3     :     0.000727
      f-3     :     0.006014
  7 H s       :     0.580093  s :     0.580093
      pz      :     0.221225  p :     0.530318
      px      :     0.148764
      py      :     0.160329
      dz2     :     0.107412  d :     0.344054
      dxz     :     0.084930
      dyz     :     0.081782
      dx2y2   :     0.039105
      dxy     :     0.030825
  8 H s       :     0.542781  s :     0.542781
      pz      :     0.140836  p :     0.628001
      px      :     0.295757
      py      :     0.191407
      dz2     :     0.053909  d :     0.504518
      dxz     :     0.123240
      dyz     :     0.033232
      dx2y2   :     0.143454
      dxy     :     0.150684
  9 O s       :     2.950325  s :     2.950325
      pz      :     1.259161  p :     3.799187
      px      :     1.262228
      py      :     1.277797
      dz2     :     0.023465  d :     0.101978
      dxz     :     0.005869
      dyz     :     0.023077
      dx2y2   :     0.016024
      dxy     :     0.033542
      f0      :     0.000830  f :     0.018747
      f+1     :     0.003227
      f-1     :     0.005142
      f+2     :     0.001870
      f-2     :     0.000944
      f+3     :     0.000726
      f-3     :     0.006008
 10 H s       :     0.542809  s :     0.542809
      pz      :     0.140817  p :     0.627983
      px      :     0.293597
      py      :     0.193570
      dz2     :     0.053908  d :     0.504517
      dxz     :     0.107247
      dyz     :     0.049228
      dx2y2   :     0.147985
      dxy     :     0.146150
 11 H s       :     0.580030  s :     0.580030
      pz      :     0.221234  p :     0.530382
      px      :     0.137880
      py      :     0.171268
      dz2     :     0.107417  d :     0.344057
      dxz     :     0.077438
      dyz     :     0.089262
      dx2y2   :     0.029866
      dxy     :     0.040074
 12 O s       :     2.950314  s :     2.950314
      pz      :     1.259120  p :     3.799164
      px      :     1.308026
      py      :     1.232018
      dz2     :     0.023460  d :     0.101972
      dxz     :     0.022273
      dyz     :     0.006679
      dx2y2   :     0.033798
      dxy     :     0.015761
      f0      :     0.000831  f :     0.018756
      f+1     :     0.005756
      f-1     :     0.002617
      f+2     :     0.001854
      f-2     :     0.000958
      f+3     :     0.000726
      f-3     :     0.006015
 13 H s       :     0.580026  s :     0.580026
      pz      :     0.221238  p :     0.530375
      px      :     0.177053
      py      :     0.132083
      dz2     :     0.107414  d :     0.344052
      dxz     :     0.087692
      dyz     :     0.079016
      dx2y2   :     0.035912
      dxy     :     0.034019
 14 H s       :     0.542812  s :     0.542812
      pz      :     0.140848  p :     0.627974
      px      :     0.141377
      py      :     0.345750
      dz2     :     0.053916  d :     0.504530
      dxz     :     0.004224
      dyz     :     0.152242
      dx2y2   :     0.149725
      dxy     :     0.144423
 15 O s       :     2.950314  s :     2.950314
      pz      :     1.259120  p :     3.799165
      px      :     1.308027
      py      :     1.232018
      dz2     :     0.023460  d :     0.101972
      dxz     :     0.022274
      dyz     :     0.006679
      dx2y2   :     0.033798
      dxy     :     0.015761
      f0      :     0.000831  f :     0.018756
      f+1     :     0.005756
      f-1     :     0.002617
      f+2     :     0.001854
      f-2     :     0.000958
      f+3     :     0.000726
      f-3     :     0.006015
 16 H s       :     0.580026  s :     0.580026
      pz      :     0.221238  p :     0.530375
      px      :     0.177053
      py      :     0.132083
      dz2     :     0.107414  d :     0.344052
      dxz     :     0.087692
      dyz     :     0.079015
      dx2y2   :     0.035912
      dxy     :     0.034019
 17 H s       :     0.542811  s :     0.542811
      pz      :     0.140848  p :     0.627974
      px      :     0.141376
      py      :     0.345750
      dz2     :     0.053916  d :     0.504530
      dxz     :     0.004224
      dyz     :     0.152242
      dx2y2   :     0.149725
      dxy     :     0.144423


                      *****************************
                      * MAYER POPULATION ANALYSIS *
                      *****************************

  NA   - Mulliken gross atomic population
  ZA   - Total nuclear charge
  QA   - Mulliken gross atomic charge
  VA   - Mayer's total valence
  BVA  - Mayer's bonded valence
  FA   - Mayer's free valence

  ATOM       NA         ZA         QA         VA         BVA        FA
  0 O      8.4304     8.0000    -0.4304     1.8919     1.8919     0.0000
  1 H      0.8331     1.0000     0.1669     1.0877     1.0877     0.0000
  2 H      0.7365     1.0000     0.2635     1.0140     1.0140     0.0000
  3 O      8.4289     8.0000    -0.4289     1.8926     1.8926    -0.0000
  4 H      0.7365     1.0000     0.2635     1.0152     1.0152     0.0000
  5 H      0.8343     1.0000     0.1657     1.0880     1.0880    -0.0000
  6 O      8.4289     8.0000    -0.4289     1.8926     1.8926    -0.0000
  7 H      0.8343     1.0000     0.1657     1.0880     1.0880     0.0000
  8 H      0.7365     1.0000     0.2635     1.0152     1.0152    -0.0000
  9 O      8.4304     8.0000    -0.4304     1.8919     1.8919     0.0000
 10 H      0.7365     1.0000     0.2635     1.0140     1.0140     0.0000
 11 H      0.8331     1.0000     0.1669     1.0877     1.0877    -0.0000
 12 O      8.4291     8.0000    -0.4291     1.8938     1.8938    -0.0000
 13 H      0.8346     1.0000     0.1654     1.0890     1.0890    -0.0000
 14 H      0.7366     1.0000     0.2634     1.0142     1.0142    -0.0000
 15 O      8.4291     8.0000    -0.4291     1.8938     1.8938     0.0000
 16 H      0.8346     1.0000     0.1654     1.0890     1.0890    -0.0000
 17 H      0.7366     1.0000     0.2634     1.0142     1.0142    -0.0000

  Mayer bond orders larger than 0.100000
B(  0-O ,  1-H ) :   1.0433 B(  0-O ,  2-H ) :   0.8723 B(  0-O ,  8-H ) :   0.1027 
B(  2-H , 15-O ) :   0.1025 B(  3-O ,  4-H ) :   0.8731 B(  3-O ,  5-H ) :   1.0437 
B(  3-O , 17-H ) :   0.1020 B(  4-H ,  9-O ) :   0.1027 B(  6-O ,  7-H ) :   1.0437 
B(  6-O ,  8-H ) :   0.8731 B(  6-O , 14-H ) :   0.1020 B(  9-O , 10-H ) :   0.8723 
B(  9-O , 11-H ) :   1.0433 B( 10-H , 12-O ) :   0.1025 B( 12-O , 13-H ) :   1.0444 
B( 12-O , 14-H ) :   0.8730 B( 15-O , 16-H ) :   1.0444 B( 15-O , 17-H ) :   0.8730 


-------
TIMINGS
-------

Total SCF time: 0 days 0 hours 0 min 7 sec 

Total time                  ....       7.727 sec
Sum of individual times     ....       7.253 sec  ( 93.9%)

Fock matrix formation       ....       5.724 sec  ( 74.1%)
  Split-RI-J                ....       2.038 sec  ( 35.6% of F)
  XC integration            ....       3.486 sec  ( 60.9% of F)
    Basis function eval.    ....       0.311 sec  (  8.9% of XC)
    Density eval.           ....       0.811 sec  ( 23.3% of XC)
    XC-Functional eval.     ....       0.051 sec  (  1.5% of XC)
    XC-Potential eval.      ....       1.684 sec  ( 48.3% of XC)
Diagonalization             ....       0.365 sec  (  4.7%)
Density matrix formation    ....       0.037 sec  (  0.5%)
Population analysis         ....       0.050 sec  (  0.6%)
Initial guess               ....       0.296 sec  (  3.8%)
Orbital Transformation      ....       0.000 sec  (  0.0%)
Orbital Orthonormalization  ....       0.000 sec  (  0.0%)
DIIS solution               ....       0.161 sec  (  2.1%)
SOSCF solution              ....       0.321 sec  (  4.2%)
Grid generation             ....       0.299 sec  (  3.9%)


-------------------------------------------------------------------------------
                          DFT DISPERSION CORRECTION                            
                                                                               
                              DFTD3 V3.1  Rev 1                                
                          USING Becke-Johnson damping                          
-------------------------------------------------------------------------------
The SCAN functional is recognized
Active option DFTDOPT                   ...         4   

molecular C6(AA) [au] = 1602.214577 


            DFT-D V3
 parameters
 s6 scaling factor         :     1.0000 
 a1 scaling factor         :     0.5380 
 s8 scaling factor         :     0.0000 
 a2 scaling factor         :     5.4200 
 ad hoc parameters k1-k3   :    16.0000     1.3333    -4.0000 

 Edisp/kcal,au: -1.370515800094  -0.002184055716 
 E6   /kcal   :  -1.370515800 
 E8   /kcal   :  -0.000000000 
 % E8         :   0.000000000 

-------------------------   ----------------
Dispersion correction           -0.002184056
-------------------------   ----------------


-------------------------   --------------------
FINAL SINGLE POINT ENERGY      -458.637438838056
-------------------------   --------------------



           ************************************************************
           *        Program running with 24 parallel MPI-processes    *
           *              working on a common directory               *
           ************************************************************
------------------------------------------------------------------------------
                         ORCA SCF GRADIENT CALCULATION
------------------------------------------------------------------------------

Gradient of the Kohn-Sham DFT energy:
Kohn-Sham wavefunction type      ... RKS
Hartree-Fock exchange scaling    ...    0.000
[...]
 H      7   3   1     1.837671446282    32.99006655   241.29875294
 O      7   3   1     5.175642096648    68.93666938   133.86494721
 H     10   7   3     1.808564222211    47.51684281   286.44203093
 H     10   7   3     1.802866121536    81.95103866   151.00155079
 O      5   4   3     3.649604244662   139.99616346    46.98549085
 H     13   5   4     1.803961361914   100.74237312    69.46343231
 H     13   5   4     1.819656998108    98.87481362   307.90802694
 O      9   7   3     3.376937514131   135.68839379   247.16263620
 H     16   9   7     1.803927937562    95.04393918   293.25815471
 H     16   9   7     1.834240745661    96.78962442    62.89284030



           ************************************************************
           *        Program running with 24 parallel MPI-processes    *
           *              working on a common directory               *
           ************************************************************
 One Electron integrals                  ... done
 Pre-screening matrix                    ... done


           ************************************************************
           *        Program running with 24 parallel MPI-processes    *
           *              working on a common directory               *
           ************************************************************

Diagonalization of the overlap matrix:
Smallest eigenvalue                        ... 8.305e-05
Time for diagonalization                   ...    0.037 sec
Threshold for overlap eigenvalues          ... 1.000e-08
Number of eigenvalues below threshold      ... 0
Time for construction of square roots      ...    0.043 sec
Total time needed                          ...    0.082 sec

-------------------
DFT GRID GENERATION
-------------------

General Integration Accuracy     IntAcc      ...  4.670
Radial Grid Type                 RadialGrid  ... Gauss-Chebyshev
Angular Grid (max. acc.)         AngularGrid ... Lebedev-302
Angular grid pruning method      GridPruning ... 3 (G Style)
Weight generation scheme         WeightScheme... Becke
Basis function cutoff            BFCut       ...    1.0000e-11
Integration weight cutoff        WCut        ...    1.0000e-14
Grids for H and He will be reduced by one unit

# of grid points (after initial pruning)     ...  78000 (   0.0 sec)
# of grid points (after weights+screening)   ...  72154 (   0.0 sec)
nearest neighbour list constructed           ...    0.0 sec
Grid point re-assignment to atoms done       ...    0.0 sec
Grid point division into batches done        ...    0.2 sec
Reduced shell lists constructed in    0.2 sec

Total number of grid points                  ...    72154
Total number of batches                      ...     1135
Average number of points per batch           ...       63
Average number of grid points per atom       ...     4009
Average number of shells per batch           ...   123.20 (64.17%)
Average number of basis functions per batch  ...   337.45 (61.13%)
Average number of large shells per batch     ...    95.49 (77.51%)
Average number of large basis fcns per batch ...   251.53 (74.54%)
Maximum spatial batch extension              ...  10.70, 13.08,  6.50 au
Average spatial batch extension              ...   0.09,  0.09,  0.07 au

Time for grid setup =    0.292 sec

--------------
SCF ITERATIONS
--------------
ITER       Energy         Delta-E        Max-DP      RMS-DP      [F,P]     Damp
               ***  Starting incremental Fock matrix formation  ***
                      *** Initiating the SOSCF procedure ***
                      *** Re-Reading the Fockian *** 
                      *** Removing any level shift *** 
ITER      Energy       Delta-E        Grad      Rot      Max-DP    RMS-DP
  0   -458.55207033 -458.5520703288  0.000952  0.000952  0.005726  0.000079
               *** Restarting incremental Fock matrix formation ***
  1   -458.55234239  -0.0002720623  0.000187  0.000379  0.001965  0.000020
  2   -458.55235162  -0.0000092306  0.000182  0.000257  0.000374  0.000007
  3   -458.55235385  -0.0000022301  0.000093  0.000172  0.000410  0.000006
  4   -458.55235590  -0.0000020529  0.000014  0.000013  0.000065  0.000001
  5   -458.55235592  -0.0000000160  0.000007  0.000008  0.000021  0.000000
  6   -458.55235593  -0.0000000102  0.000004  0.000004  0.000013  0.000000
                  ***Gradient check signals convergence***
              ***Rediagonalizing the Fockian in SOSCF/NRSCF***

               *****************************************************
               *                     SUCCESS                       *
               *           SCF CONVERGED AFTER   7 CYCLES          *
               *****************************************************

Total Energy       :         -458.55235593 Eh          -12477.84397 eV
  Last Energy change         ...   -3.4635e-09  Tolerance :   1.0000e-08
  Last MAX-Density change    ...    4.1706e-06  Tolerance :   1.0000e-07
             **** THE GBW FILE WAS UPDATED (06_H2O_6_ring.gbw) ****
             **** DENSITY FILE WAS UPDATED (06_H2O_6_ring.scfp) ****
             **** ENERGY FILE WAS UPDATED (06_H2O_6_ring.en.tmp) ****
             **** THE GBW FILE WAS UPDATED (06_H2O_6_ring.gbw) ****
             **** DENSITY FILE WAS UPDATED (06_H2O_6_ring.scfp) ****
Total SCF time: 0 days 0 hours 0 min 5 sec 


-------------------------------------------------------------------------------
                          DFT DISPERSION CORRECTION                            
                                                                               
                              DFTD3 V3.1  Rev 1                                
                          USING Becke-Johnson damping                          
-------------------------------------------------------------------------------
-------------------------   ----------------
Dispersion correction           -0.002585128
-------------------------   ----------------


-------------------------   --------------------
FINAL SINGLE POINT ENERGY      -458.554941062634
-------------------------   --------------------



           ************************************************************
           *        Program running with 24 parallel MPI-processes    *
           *              working on a common directory               *
           ************************************************************
------------------------------------------------------------------------------
                         ORCA SCF GRADIENT CALCULATION
------------------------------------------------------------------------------

Gradient of the Kohn-Sham DFT energy:
Kohn-Sham wavefunction type      ... RKS
Hartree-Fock exchange scaling    ...    0.000
Number of operators              ...    1
Number of atoms                  ...   18
Basis set dimensions             ...  552
Integral neglect threshold       ... 2.5e-11
Integral primitive cutoff        ... 2.5e-12

Nuclear repulsion gradient       ... done
One Electron Gradient            ... done
Pre-screening matrix             ... done
RI-J gradient                    ... done
Exchange-correlation gradient    ... done
Dispersion correction            ... done

------------------
CARTESIAN GRADIENT
------------------

   1   O   :    0.028320078   -0.007040412   -0.022455213
   2   H   :    0.014718764    0.007600041    0.000441877
   3   H   :    0.013732415    0.008211641   -0.014138575
   4   O   :   -0.006799466    0.030430007   -0.034242717
   5   H   :   -0.008474778    0.001960042   -0.019121983
   6   H   :   -0.014092866    0.010697833   -0.000119885
   7   O   :   -0.000025283   -0.031020975    0.030856377
   8   H   :    0.010885116   -0.010041088    0.002381579
   9   H   :    0.003682974   -0.000905502    0.022572646
  10   O   :   -0.024420857    0.002537215    0.024236594
  11   H   :   -0.010354991   -0.002202704    0.016418037
  12   H   :   -0.015971369   -0.006555886    0.001506372
  13   O   :   -0.021380427   -0.027137997   -0.017929477
  14   H   :   -0.004364663   -0.018498336   -0.002600296
  15   H   :   -0.004673593   -0.005368506   -0.022872297
  16   O   :    0.019808872   -0.001314514    0.015745313
  17   H   :    0.006018510    0.024315194    0.006213933
  18   H   :   -0.003859694    0.003665973    0.028911378

Difference to translation invariance:
           :   -0.0172512566   -0.0206679719    0.0158036641

Norm of the cartesian gradient     ...    0.1189544755
RMS gradient                       ...    0.0161876538
MAX gradient                       ...    0.0342427168

-------
TIMINGS
-------

Total SCF gradient time            ...        2.812 sec

One electron gradient       ....       0.063 sec  (  2.2%)
Prescreening matrices       ....       0.111 sec  (  4.0%)
RI-J Coulomb gradient       ....       0.622 sec  ( 22.1%)
XC gradient                 ....       1.646 sec  ( 58.5%)
------------------------------------------------------------------------------
                         ORCA GEOMETRY RELAXATION STEP
------------------------------------------------------------------------------

Reading the OPT-File                    .... done
Getting information on internals        .... done
Copying old internal coords+grads       .... done
Making the new internal coordinates     .... (new redundants).... done
Validating the new internal coordinates .... (new redundants).... done
Calculating the B-matrix                .... done
Calculating the G,G- and P matrices     .... done
Transforming gradient to internals      .... done
Projecting the internal gradient        .... done
Number of atoms                         ....  18
Number of internal coordinates          ....  72
Current Energy                          ....  -458.554941063 Eh
Current gradient norm                   ....     0.118954476 Eh/bohr
Maximum allowed component of the step   ....  0.300
Current trust radius                    ....  0.300
Updating the Hessian (BFGS)             .... done
Forming the augmented Hessian           .... done
Diagonalizing the augmented Hessian     .... done
Last element of RFO vector              ....  0.713618903
Lowest eigenvalues of augmented Hessian:
 -0.062899399  0.000068386  0.000163134  0.000322425  0.000374990
Length of the computed step             ....  0.981664196
Warning: the length of the step is outside the trust region - taking restricted step instead
The input lambda is                     ....    -0.062899
   iter:   1  x=   -0.092339  g=   29.676921 f(x)=     0.873665
   iter:   2  x=   -0.130309  g=    9.656595 f(x)=     0.366668
   iter:   3  x=   -0.171002  g=    3.505113 f(x)=     0.142631
   iter:   4  x=   -0.200489  g=    1.570470 f(x)=     0.046308
   iter:   5  x=   -0.210286  g=    0.980475 f(x)=     0.009606
   iter:   6  x=   -0.211054  g=    0.851166 f(x)=     0.000653
   iter:   7  x=   -0.211058  g=    0.842019 f(x)=     0.000004
   iter:   8  x=   -0.211058  g=    0.841970 f(x)=     0.000000
   iter:   9  x=   -0.211058  g=    0.841970 f(x)=     0.000000
The output lambda is                    ....    -0.211058 (9 iterations)
The final length of the internal step   ....  0.300000000
Converting the step to cartesian space:
 Initial RMS(Int)=    0.0353553391
Transforming coordinates:
 Iter   0:  RMS(Cart)=    0.0449177441 RMS(Int)=    0.0353812651
 Iter   1:  RMS(Cart)=    0.0018655549 RMS(Int)=    0.0006937636
 Iter   2:  RMS(Cart)=    0.0009150884 RMS(Int)=    0.0002560640
 Iter   3:  RMS(Cart)=    0.0004149558 RMS(Int)=    0.0001154368
 Iter   4:  RMS(Cart)=    0.0001896986 RMS(Int)=    0.0000524291
 Iter   5:  RMS(Cart)=    0.0000868628 RMS(Int)=    0.0000239232
 Iter   6:  RMS(Cart)=    0.0000398601 RMS(Int)=    0.0000109534
 Iter   7:  RMS(Cart)=    0.0000183253 RMS(Int)=    0.0000050281
 Iter   8:  RMS(Cart)=    0.0000084392 RMS(Int)=    0.0000023128
 Iter   9:  RMS(Cart)=    0.0000038925 RMS(Int)=    0.0000010656
 Iter  10:  RMS(Cart)=    0.0000017980 RMS(Int)=    0.0000004916
 Iter  11:  RMS(Cart)=    0.0000008317 RMS(Int)=    0.0000002271
 Iter  12:  RMS(Cart)=    0.0000003852 RMS(Int)=    0.0000001050
 Iter  13:  RMS(Cart)=    0.0000001787 RMS(Int)=    0.0000000486
 Iter  14:  RMS(Cart)=    0.0000000830 RMS(Int)=    0.0000000225
done
Storing new coordinates                 .... done

                                .--------------------.
          ----------------------|Geometry convergence|-------------------------
          Item                value                   Tolerance       Converged
          ---------------------------------------------------------------------
          Energy change       0.0012904403            0.0000050000      NO
          RMS gradient        0.0076858476            0.0001000000      NO
          MAX gradient        0.0325837789            0.0003000000      NO
          RMS step            0.0353553391            0.0020000000      NO
          MAX step            0.1508794774            0.0040000000      NO
          ........................................................
          Max(Bonds)      0.0798      Max(Angles)    1.25
          Max(Dihed)        1.40      Max(Improp)    0.00
          ---------------------------------------------------------------------

The optimization has not yet converged - more geometry cycles are needed


    ---------------------------------------------------------------------------
                         Redundant Internal Coordinates
                            (Angstroem and degrees)

        Definition                    Value    dE/dq     Step     New-Value
    ----------------------------------------------------------------------------
     1. B(H   1,O   0)                0.9530 -0.000218  0.0002    0.9531   
     2. B(H   2,O   0)                0.9522 -0.000954  0.0002    0.9524   
     3. B(H   4,O   3)                0.9651  0.000861 -0.0005    0.9646   
     4. B(H   5,O   3)                0.9550 -0.000150 -0.0003    0.9546   
     5. B(H   7,O   6)                0.9532  0.000070 -0.0001    0.9531   
     6. B(H   8,O   6)                0.9725 -0.001419  0.0008    0.9733   
     7. B(H   8,O   0)                3.7054 -0.027016  0.0650    3.7704   
     8. B(O   9,H   4)                3.2307 -0.024787  0.0638    3.2945   
     9. B(H  10,O   9)                0.9571  0.001339 -0.0006    0.9565   
    10. B(H  11,O   9)                0.9540 -0.000479  0.0002    0.9542   
    11. B(O  12,H  10)                2.5900 -0.019353  0.0463    2.6362   
    12. B(H  13,O  12)                0.9546  0.000076  0.0000    0.9546   
    13. B(H  14,O  12)                0.9629  0.002131 -0.0017    0.9612   
    14. B(H  14,O   6)                3.2912 -0.028018  0.0707    3.3620   
    15. B(O  15,H   2)                3.2719 -0.015731  0.0408    3.3128   
    16. B(H  16,O  15)                0.9546  0.000037 -0.0001    0.9545   
    17. B(H  17,O   3)                3.7694 -0.032584  0.0798    3.8492   
    18. B(H  17,O  15)                0.9706  0.000541  0.0003    0.9709   
    19. A(H   1,O   0,H   2)          115.81  0.000413    0.52    116.33   
    20. A(H   2,O   0,H   8)           66.69 -0.003963    0.38     67.07   
    21. A(H   1,O   0,H   8)          174.76  0.004680   -0.78    173.97   
    22. L(O   0,H   2,O  15,H   8, 1) 129.33 -0.002207   -0.18    129.14   
    23. L(O   0,H   2,O  15,H   8, 2) 198.72 -0.000412    0.30    199.02   
    24. A(H   4,O   3,H  17)           68.86  0.003512   -1.25     67.61   
    25. A(H   4,O   3,H   5)          119.04 -0.002795    0.92    119.96   
    26. A(H   5,O   3,H  17)          170.17 -0.000667    0.27    170.45   
    27. L(O   3,H   4,O   9,H  17, 1) 130.48 -0.004978    0.67    131.15   
    28. L(O   3,H   4,O   9,H  17, 2) 198.77 -0.001011    0.35    199.13   
    29. A(H   7,O   6,H   8)          117.38 -0.005373    1.05    118.43   
    30. A(H   8,O   6,H  14)           71.06  0.003862   -0.48     70.59   
    31. A(H   7,O   6,H  14)          171.28  0.002081   -0.73    170.54   
    32. L(O   0,H   8,O   6,H  14, 2) 197.71  0.002112   -0.34    197.37   
    33. L(O   0,H   8,O   6,H  14, 1) 132.24  0.001370   -0.01    132.23   
    34. A(H   4,O   9,H  11)          172.31 -0.001046   -0.18    172.13   
    35. A(H   4,O   9,H  10)           72.17  0.004381   -0.44     71.73   
    36. A(H  10,O   9,H  11)          115.20 -0.003478    0.62    115.82   
    37. L(O   9,H  10,O  12,H   4, 2) 162.87 -0.001694    0.73    163.60   
    38. L(O   9,H  10,O  12,H   4, 1) 129.27  0.003848   -0.20    129.07   
    39. A(H  10,O  12,H  14)           74.58  0.001121   -0.68     73.90   
    40. A(H  10,O  12,H  13)          164.34  0.000256    0.24    164.58   
    41. A(H  13,O  12,H  14)          118.64 -0.001567    0.40    119.04   
    42. L(O   6,H  14,O  12,H  10, 2) 161.17  0.000016    0.10    161.28   
    43. L(O   6,H  14,O  12,H  10, 1) 125.85 -0.001598   -0.11    125.74   
    44. A(H   2,O  15,H  17)           77.59  0.005696   -0.78     76.80   
    45. A(H   2,O  15,H  16)          154.06 -0.005087    0.81    154.87   
    46. A(H  16,O  15,H  17)          128.36 -0.000610   -0.04    128.32   
    47. L(O   3,H  17,O  15,H   2, 2) 187.36  0.000330    0.08    187.44   
    48. L(O   3,H  17,O  15,H   2, 1) 120.95 -0.001873    0.76    121.71   
    49. D(H  14,O   6,O   0,H   1)     22.99 -0.002299    0.38     23.37   
    50. D(H  14,O   6,O   0,H   2)   -105.86 -0.000265   -0.10   -105.95   
    51. D(H   7,O   6,O   0,H   1)   -155.65  0.001790   -0.61   -156.26   
    52. D(H   7,O   6,O   0,H   2)     75.51  0.003824   -1.08     74.42   
    53. D(H  10,O   9,O   3,H  17)    103.80 -0.003672    0.61    104.41   
    54. D(H  10,O   9,O   3,H   5)    -67.77 -0.003380    0.86    -66.91   
    55. D(H  11,O   9,O   3,H   5)    148.03  0.001147   -0.21    147.82   
    56. D(H  11,O   9,O   3,H  17)    -40.40  0.000855   -0.46    -40.86   
    57. D(H  13,O  12,O   9,H   4)     72.05  0.004288   -0.90     71.15   
    58. D(H  13,O  12,O   9,H  11)   -108.32  0.003665   -1.11   -109.43   
    59. D(H  10,O  12,O   6,H   8)     99.59  0.001291   -0.25     99.34   
    60. D(H  10,O  12,O   6,H   7)    -45.35 -0.000667    0.13    -45.22   
    61. D(H  13,O  12,O   6,H   8)   -109.77  0.002490   -0.60   -110.37   
    62. D(H  14,O  12,O   9,H  11)     77.56  0.004614   -1.40     76.16   
    63. D(H  13,O  12,O   6,H   7)    105.29  0.000532   -0.23    105.06   
    64. D(H  14,O  12,O   9,H   4)   -102.08  0.005237   -1.18   -103.26   
    65. D(H   2,O  15,O   3,H   5)     21.02  0.000370   -0.15     20.87   
    66. D(H  16,O  15,O   3,H   5)   -118.62  0.001195   -0.31   -118.93   
    67. D(H  16,O  15,O   3,H   4)    105.75  0.000878   -0.19    105.56   
    68. D(H  17,O  15,O   0,H   8)     99.62  0.003539   -0.52     99.10   
    69. D(H  17,O  15,O   0,H   1)    -71.34 -0.001243    0.35    -70.99   
    70. D(H   2,O  15,O   3,H   4)   -114.61  0.000053   -0.03   -114.64   
    71. D(H  16,O  15,O   0,H   8)    -66.88  0.002669   -0.81    -67.69   
    72. D(H  16,O  15,O   0,H   1)    122.16 -0.002113    0.06    122.22   
    ----------------------------------------------------------------------------




    ----------------------------------------------------------------------------
                                   ERROR !!!
       The optimization did not converge but reached the maximum 
       number of optimization cycles.
       As a subsequent Frequencies calculation has been requested
       ORCA will abort at this point of the run.
       Please restart the calculation with the lowest energy geometry and/or
       a larger maxiter for the geometry optimization.
    ----------------------------------------------------------------------------


[file orca_main/run.cpp, line 10680]: ORCA finished with error return - aborting the run
[file orca_main/run.cpp, line 10680]: ORCA finished with error return - aborting the run
