
                                 *****************
                                 * O   R   C   A *
                                 *****************

           --- An Ab Initio, DFT and Semiempirical electronic structure package ---

                  #######################################################
                  #                        -***-                        #
                  #          Department of theory and spectroscopy      #
                  #               Directorship: Frank Neese             #
                  #        Max Planck Institute fuer Kohlenforschung    #
                  #                Kaiser Wilhelm Platz 1               #
                  #                 D-45470 Muelheim/Ruhr               #
                  #                      Germany                        #
                  #                                                     #
                  #                  All rights reserved                #
                  #                        -***-                        #
                  #######################################################


                         Program Version 4.2.0 -  RELEASE  -


 With contributions from (in alphabetic order):
   Daniel Aravena         : Magnetic Suceptibility
   Michael Atanasov       : Ab Initio Ligand Field Theory (pilot matlab implementation)
   Alexander A. Auer      : GIAO ZORA, VPT2
   Ute Becker             : Parallelization
   Giovanni Bistoni       : ED, misc. LED, open-shell LED, HFLED
   Martin Brehm           : Molecular dynamics
   Dmytro Bykov           : SCF Hessian
   Vijay G. Chilkuri      : MRCI spin determinant printing, contributions to CSF-ICE
   Dipayan Datta          : RHF DLPNO-CCSD density
   Achintya Kumar Dutta   : EOM-CC, STEOM-CC
   Dmitry Ganyushin       : Spin-Orbit,Spin-Spin,Magnetic field MRCI
   Miquel Garcia          : C-PCM Hessian, Gaussian charge scheme
   Yang Guo               : DLPNO-NEVPT2, CIM, IAO-localization
   Andreas Hansen         : Spin unrestricted coupled pair/coupled cluster methods
   Benjamin Helmich-Paris : CASSCF linear response (MC-RPA)
   Lee Huntington         : MR-EOM, pCC
   Robert Izsak           : Overlap fitted RIJCOSX, COSX-SCS-MP3, EOM
   Christian Kollmar      : KDIIS, OOCD, Brueckner-CCSD(T), CCSD density
   Simone Kossmann        : Meta GGA functionals, TD-DFT gradient, OOMP2, MP2 Hessian
   Martin Krupicka        : AUTO-CI
   Lucas Lang             : DCDCAS
   Dagmar Lenk            : GEPOL surface, SMD
   Dimitrios Liakos       : Extrapolation schemes; Compound Job, initial MDCI parallelization
   Dimitrios Manganas     : Further ROCIS development; embedding schemes
   Dimitrios Pantazis     : SARC Basis sets
   Taras Petrenko         : DFT Hessian,TD-DFT gradient, ASA, ECA, R-Raman, ABS, FL, XAS/XES, NRVS
   Peter Pinski           : DLPNO-MP2, DLPNO-MP2 Gradient
   Christoph Reimann      : Effective Core Potentials
   Marius Retegan         : Local ZFS, SOC
   Christoph Riplinger    : Optimizer, TS searches, QM/MM, DLPNO-CCSD(T), (RO)-DLPNO pert. Triples
   Tobias Risthaus        : Range-separated hybrids, TD-DFT gradient, RPA, STAB
   Michael Roemelt        : Original ROCIS implementation
   Masaaki Saitow         : Open-shell DLPNO-CCSD energy and density
   Barbara Sandhoefer     : DKH picture change effects
   Avijit Sen             : IP-ROCIS
   Kantharuban Sivalingam : CASSCF convergence, NEVPT2, FIC-MRCI
   Bernardo de Souza      : ESD, SOC TD-DFT
   Georgi Stoychev        : AutoAux, RI-MP2 NMR
   Willem Van den Heuvel  : Paramagnetic NMR
   Boris Wezisla          : Elementary symmetry handling
   Frank Wennmohs         : Technical directorship


 We gratefully acknowledge several colleagues who have allowed us to
 interface, adapt or use parts of their codes:
   Stefan Grimme, W. Hujo, H. Kruse,             : VdW corrections, initial TS optimization,
                  C. Bannwarth                     DFT functionals, gCP, sTDA/sTD-DF
   Ed Valeev, F. Pavosevic, A. Kumar             : LibInt (2-el integral package), F12 methods
   Garnet Chan, S. Sharma, J. Yang, R. Olivares  : DMRG
   Ulf Ekstrom                                   : XCFun DFT Library
   Mihaly Kallay                                 : mrcc  (arbitrary order and MRCC methods)
   Andreas Klamt, Michael Diedenhofen            : otool_cosmo (COSMO solvation model)
   Jiri Pittner, Ondrej Demel                    : Mk-CCSD
   Frank Weinhold                                : gennbo (NPA and NBO analysis)
   Christopher J. Cramer and Donald G. Truhlar   : smd solvation model
   Lars Goerigk                                  : TD-DFT with DH, B97 family of functionals
   V. Asgeirsson, H. Jonsson                     : NEB implementation
   FAccTs GmbH                                   : IRC, NEB, NEB-TS, Multilevel, MM, QM/MM, CI optimization
   S Lehtola, MJT Oliveira, MAL Marques          : LibXC Library


 Your calculation uses the libint2 library for the computation of 2-el integrals
 For citations please refer to: http://libint.valeyev.net

 Your ORCA version has been built with support for libXC version: 4.2.3
 For citations please refer to: https://tddft.org/programs/libxc/

 This ORCA versions uses:
   CBLAS   interface :  Fast vector & matrix operations
   LAPACKE interface :  Fast linear algebra routines
   SCALAPACK package :  Parallel linear algebra routines


Your calculation utilizes the atom-pairwise dispersion correction
with the Becke-Johnson damping scheme (D3BJ)
Cite in your paper:
S.Grimme, S.Ehrlich, L.Goerigk, J Comput Chem, (2011), 32, 1456–1465 
S.Grimme, J.Antony, S.Ehrlich and H.Krieg, J.Chem.Phys., 132, (2010), 154104 
   

----- Orbital basis set information -----
Your calculation utilizes the basis: aug-cc-pV(T+d)Z 
             Al - Ar: T.H. Dunning, Jr., K. A. Peterson and A. K. Wilson, J. Chem. Phys.
                      114, 9244 (2001)

----- AuxJ basis set information -----
Your calculation utilizes the auxiliary basis: def2/J
   F. Weigend, Phys. Chem. Chem. Phys. 8, 1057 (2006).

================================================================================
                                        WARNINGS
                       Please study these warnings very carefully!
================================================================================


WARNING: Geometry Optimization
  ===> : Switching off AutoStart
         For restart on a previous wavefunction, please use MOREAD

WARNING: The SCAN functional is very grid-sensitive!
         Use at least GRID5 and a higher intacc

INFO   : the flag for use of LIBINT has been found!

================================================================================
                                       INPUT FILE
================================================================================
NAME = 07_H2O_6_book.in
|  1> #
|  2> # 07_H2O_6_book scanfunc/aug-cc-pvt(+d)z
|  3> #
|  4> ! scanfunc d3bj aug-cc-pvt(+d)z def2/j grid4 nofinalgrid opt xyzfile numfreq
|  5> 
|  6> *xyz 0 1
|  7> O	0.116757	1.553296	0.874144
|  8> H	0.955357	1.526953	0.36374
|  9> H	0.278593	2.140101	1.61497
| 10> O	-0.028991	-1.36957	0.910464
| 11> H	-0.055528	-0.424567	1.109294
| 12> H	-0.872074	-1.539194	0.457007
| 13> O	-2.340721	1.363977	-0.433023
| 14> H	-1.482171	1.543988	-0.013805
| 15> H	-2.349173	1.886417	-1.236377
| 16> O	-2.490803	-1.41279	-0.437012
| 17> H	-2.562332	-0.444637	-0.504051
| 18> H	-3.290032	-1.695404	0.010212
| 19> O	2.424786	1.214249	-0.477895
| 20> H	2.508896	0.237506	-0.500154
| 21> H	2.55493	1.502809	-1.382466
| 22> O	2.31194	-1.486888	-0.434852
| 23> H	1.449966	-1.577886	0.025804
| 24> H	2.919833	-2.054267	0.041233
| 25> *
| 26> 
| 27> %maxcore 5000
| 28> 
| 29> %pal
| 30> nprocs 24
| 31> end
| 32> 
| 33> 
| 34>                          ****END OF INPUT****
================================================================================

                       *****************************
                       * Geometry Optimization Run *
                       *****************************

Geometry optimization settings:
Update method            Update   .... BFGS
Choice of coordinates    CoordSys .... Z-matrix Internals
Initial Hessian          InHess   .... Almoef's Model

Convergence Tolerances:
Energy Change            TolE     ....  5.0000e-06 Eh
Max. Gradient            TolMAXG  ....  3.0000e-04 Eh/bohr
RMS Gradient             TolRMSG  ....  1.0000e-04 Eh/bohr
Max. Displacement        TolMAXD  ....  4.0000e-03 bohr
RMS Displacement         TolRMSD  ....  2.0000e-03 bohr
Strict Convergence                ....  False
------------------------------------------------------------------------------
                        ORCA OPTIMIZATION COORDINATE SETUP
------------------------------------------------------------------------------

The optimization will be done in new redundant internal coordinates
Making redundant internal coordinates   ...  (new redundants) done
Evaluating the initial hessian          ...  (Almloef) done
Evaluating the coordinates              ...  done
Calculating the B-matrix                .... done
Calculating the G-matrix                .... done
Diagonalizing the G-matrix              .... done
The first mode is                       ....  119
The number of degrees of freedom        ....   48

    -----------------------------------------------------------------
                    Redundant Internal Coordinates


    -----------------------------------------------------------------
         Definition                    Initial Value    Approx d2E/dq
    -----------------------------------------------------------------
      1. B(H   1,O   0)                  0.9821         0.479468   
      2. B(H   2,O   0)                  0.9588         0.522197   
      3. B(H   4,O   3)                  0.9661         0.508512   
      4. B(H   4,O   0)                  1.9992         0.011427   
      5. B(H   5,O   3)                  0.9722         0.497156   
      6. B(H   7,O   6)                  0.9722         0.497089   
      7. B(H   7,O   0)                  1.8290         0.021359   
      8. B(H   8,O   6)                  0.9583         0.523160   
      9. B(O   9,H   5)                  1.8535         0.019517   
     10. B(H  10,O   9)                  0.9731         0.495519   
     11. B(H  10,H   7)                  2.3155         0.000764   
     12. B(H  10,H   5)                  2.2313         0.001041   
     13. B(H  10,O   6)                  1.8235         0.021791   
     14. B(H  11,O   9)                  0.9585         0.522905   
     15. B(O  12,H   1)                  1.7220         0.031638   
     16. B(H  13,H   1)                  2.1960         0.001186   
     17. B(H  13,O  12)                  0.9806         0.482041   
     18. B(H  14,O  12)                  0.9584         0.523099   
     19. B(O  15,H  13)                  1.7368         0.029963   
     20. B(H  16,O  15)                  0.9816         0.480341   
     21. B(H  16,H   4)                  2.1842         0.001238   
     22. B(H  16,O   3)                  1.7359         0.030066   
     23. B(H  16,H  13)                  2.1665         0.001321   
     24. B(H  17,O  15)                  0.9582         0.523443   
     25. A(H   1,O   0,H   7)          119.6074         0.199991   
     26. A(H   1,O   0,H   2)          105.8933         0.317823   
     27. A(H   2,O   0,H   7)          121.7208         0.202157   
     28. A(H   2,O   0,H   4)          121.9466         0.187219   
     29. A(H   1,O   0,H   4)           96.2104         0.185339   
     30. A(H   4,O   0,H   7)           88.6667         0.136641   
     31. A(O   0,H   1,H  13)          145.5171         0.135671   
     32. A(O  12,H   1,H  13)           25.5029         0.114226   
     33. A(O   0,H   1,O  12)          170.9471         0.210313   
     34. A(H   4,O   3,H  16)          104.2222         0.210528   
     35. A(H   4,O   3,H   5)          104.0546         0.318325   
     36. A(H   5,O   3,H  16)          118.6979         0.209909   
     37. A(O   0,H   4,O   3)          160.2499         0.186630   
     38. A(O   3,H   4,H  16)           50.3900         0.136764   
     39. A(O   0,H   4,H  16)          113.8689         0.109231   
     40. A(O   3,H   5,H  10)          140.5539         0.134695   
     41. A(O   3,H   5,O   9)          166.0271         0.198643   
     42. A(O   9,H   5,H  10)           25.4751         0.110959   
     43. A(H   7,O   6,H   8)          105.5637         0.319796   
     44. A(H   8,O   6,H  10)          120.4626         0.202717   
     45. A(H   7,O   6,H  10)          107.9236         0.201409   
     46. A(O   6,H   7,H  10)           48.5295         0.131602   
     47. A(O   0,H   7,H  10)          120.9955         0.109896   
     48. A(O   0,H   7,O   6)          169.1964         0.200902   
     49. A(H   5,O   9,H  10)           99.5131         0.198562   
     50. A(H   5,O   9,H  11)          118.8861         0.199904   
     51. A(H  10,O   9,H  11)          105.3202         0.319606   
     52. A(H   5,H  10,H   7)           88.6664         0.097533   
     53. A(H   7,H  10,O   9)          143.6656         0.131572   
     54. A(H   5,H  10,O   6)          112.1913         0.111514   
     55. A(O   6,H  10,O   9)          167.2030         0.201328   
     56. A(H   5,H  10,O   9)           55.0117         0.134661   
     57. A(O   6,H  10,H   7)           23.5469         0.109991   
     58. A(H  13,O  12,H  14)          105.4762         0.318190   
     59. A(H   1,O  12,H  14)          121.5014         0.212728   
     60. A(H   1,O  12,H  13)          105.3765         0.210460   
     61. A(O  12,H  13,O  15)          168.0537         0.208973   
     62. A(H   1,H  13,O  12)           49.1206         0.135728   
     63. A(O  15,H  13,H  16)           26.2981         0.114537   
     64. A(H   1,H  13,H  16)           92.9083         0.098946   
     65. A(O  12,H  13,H  16)          141.9253         0.136889   
     66. A(H   1,H  13,O  15)          119.2064         0.113917   
     67. A(H  13,O  15,H  17)          122.3194         0.211231   
     68. A(H  13,O  15,H  16)          102.0796         0.208877   
     69. A(H  16,O  15,H  17)          105.6076         0.318041   
     70. A(H   4,H  16,H  13)           90.8519         0.099044   
     71. A(H   4,H  16,O  15)          142.1056         0.136152   
     72. A(O   3,H  16,H  13)          116.0783         0.114556   
     73. A(O   3,H  16,O  15)          167.4803         0.208971   
     74. A(H  13,H  16,O  15)           51.6223         0.136851   
     75. A(O   3,H  16,H   4)           25.3878         0.114183   
     76. D(H  13,H   1,O   0,H   4)     -0.0057         0.339672   
     77. D(O  12,H   1,O   0,H   2)    119.4034         0.339672   
     78. D(H  13,H   1,O   0,H   7)    -92.0066         0.339672   
     79. D(O  12,H   1,O   0,H   7)    -98.3574         0.339672   
     80. D(H  13,H   1,O   0,H   2)    125.7542         0.339672   
     81. D(O  12,H   1,O   0,H   4)     -6.3565         0.339672   
     82. D(O   0,H   4,O   3,H  16)     41.3569         0.362059   
     83. D(O   3,H   4,O   0,H   7)     79.9443         0.001582   
     84. D(H  16,H   4,O   0,H   1)     -5.8729         0.001582   
     85. D(H  16,H   4,O   0,H   2)   -118.9822         0.001582   
     86. D(H  16,H   4,O   0,H   7)    113.7687         0.001582   
     87. D(O   0,H   4,O   3,H   5)    -83.6804         0.362059   
     88. D(O   3,H   4,O   0,H   2)   -152.8066         0.001582   
     89. D(H  16,H   4,O   3,H   5)   -125.0373         0.362059   
     90. D(O   3,H   4,O   0,H   1)    -39.6973         0.001582   
     91. D(H  10,H   5,O   3,H  16)   -101.7980         0.341576   
     92. D(H  10,H   5,O   3,H   4)     13.4018         0.341576   
     93. D(O   9,H   5,O   3,H  16)   -101.0106         0.341576   
     94. D(O   9,H   5,O   3,H   4)     14.1891         0.341576   
     95. D(H  10,H   7,O   6,H   8)   -130.0312         0.341457   
     96. D(O   0,H   7,O   6,H  10)    -15.2180         0.341457   
     97. D(O   0,H   7,O   6,H   8)   -145.2492         0.341457   
     98. D(H  10,H   7,O   0,H   2)   -132.9859         0.001794   
     99. D(O   6,H   7,O   0,H   4)      7.7115         0.001794   
    100. D(O   6,H   7,O   0,H   1)    104.0979         0.001794   
    101. D(H  10,H   7,O   0,H   1)     90.8334         0.001794   
    102. D(O   6,H   7,O   0,H   2)   -119.7214         0.001794   
    103. D(H  10,H   7,O   0,H   4)     -5.5530         0.001794   
    104. D(H  11,O   9,H   5,O   3)   -114.6425         0.001723   
    105. D(H  10,O   9,H   5,O   3)     -1.1631         0.001723   
    106. D(H  11,O   9,H   5,H  10)   -113.4795         0.001723   
    107. D(H   7,H  10,O   9,H   5)      1.7205         0.369656   
    108. D(H   7,H  10,O   9,H  11)    125.3459         0.369656   
    109. D(O   6,H  10,O   9,H   5)     -0.1072         0.369656   
    110. D(O   6,H  10,O   9,H  11)    123.5182         0.369656   
    111. D(O   6,H  10,H   7,O   0)    176.7095         0.001507   
    112. D(H   5,H  10,H   7,O   6)   -177.5769         0.001507   
    113. D(H   5,H  10,O   6,H   7)      2.6164         0.001806   
    114. D(H   7,H  10,O   6,H   8)    121.1578         0.001806   
    115. D(H   5,H  10,O   6,H   8)    123.7742         0.001806   
    116. D(O   9,H  10,H   7,O   0)     -2.2773         0.001507   
    117. D(O   9,H  10,O   6,H   8)    123.8690         0.001806   
    118. D(O   9,H  10,O   6,H   7)      2.7112         0.001806   
    119. D(H   7,H  10,H   5,O   9)   -178.9804         0.001512   
    120. D(H   5,H  10,H   7,O   0)     -0.8674         0.001507   
    121. D(H   5,H  10,O   9,H  11)    123.6254         0.369656   
    122. D(O   9,H  10,H   7,O   6)   -178.9868         0.001507   
    123. D(H   7,H  10,H   5,O   3)      0.5776         0.001512   
    124. D(O   6,H  10,H   5,O   9)    179.9744         0.001512   
    125. D(O   6,H  10,H   5,O   3)     -0.4676         0.001512   
    126. D(O   9,H  10,H   5,O   3)    179.5580         0.001512   
    127. D(H  14,O  12,H   1,H  13)    119.5452         0.002109   
    128. D(H  14,O  12,H   1,O   0)    127.9087         0.002109   
    129. D(H  13,O  12,H   1,O   0)      8.3635         0.002109   
    130. D(O  15,H  13,O  12,H   1)     13.2536         0.344366   
    131. D(O  15,H  13,O  12,H  14)   -116.4227         0.344366   
    132. D(H   1,H  13,O  12,H  14)   -129.6763         0.344366   
    133. D(H  16,H  13,H   1,O  12)   -176.8885         0.001515   
    134. D(H  16,H  13,H   1,O   0)      5.4282         0.001515   
    135. D(O  15,H  13,H   1,O  12)   -176.8834         0.001515   
    136. D(O  15,H  13,H   1,O   0)      5.4333         0.001515   
    137. D(H  16,H  13,O  12,H  14)   -124.6333         0.344366   
    138. D(O  12,H  13,H   1,O   0)   -177.6833         0.001515   
    139. D(H  16,H  13,O  12,H   1)      5.0430         0.344366   
    140. D(H  17,O  15,H  13,H  16)   -117.4498         0.002093   
    141. D(H  17,O  15,H  13,H   1)   -117.4613         0.002093   
    142. D(H  17,O  15,H  13,O  12)   -128.9157         0.002093   
    143. D(H  16,O  15,H  13,H   1)     -0.0115         0.002093   
    144. D(H  16,O  15,H  13,O  12)    -11.4659         0.002093   
    145. D(H   4,H  16,O  15,H  13)     -9.3773         0.341260   
    146. D(O   3,H  16,O  15,H  13)    -11.5766         0.341260   
    147. D(O   3,H  16,O  15,H  17)    117.2864         0.341260   
    148. D(H  13,H  16,O  15,H  17)    128.8630         0.341260   
    149. D(H   4,H  16,H  13,H   1)     -5.7542         0.001520   
    150. D(H   4,H  16,H  13,O  12)     -9.5700         0.001520   
    151. D(O   3,H  16,H  13,O  15)    177.2239         0.001520   
    152. D(O   3,H  16,H  13,H   1)     -2.7861         0.001520   
    153. D(O   3,H  16,H  13,O  12)     -6.6019         0.001520   
    154. D(O  15,H  16,H  13,H   1)    179.9900         0.001520   
    155. D(O  15,H  16,H  13,O  12)    176.1742         0.001520   
    156. D(O   3,H  16,H   4,O   0)   -165.8677         0.001517   
    157. D(H  13,H  16,H   4,O   0)      7.9048         0.001517   
    158. D(H  13,H  16,H   4,O   3)    173.7725         0.001517   
    159. D(O  15,H  16,H   4,O   0)     15.2440         0.001517   
    160. D(O  15,H  16,H   4,O   3)   -178.8882         0.001517   
    161. D(H   4,H  16,H  13,O  15)    174.2558         0.001520   
    162. D(H   4,H  16,O   3,H   5)    115.1099         0.002098   
    163. D(H  13,H  16,O   3,H   5)    108.1740         0.002098   
    164. D(H  13,H  16,O   3,H   4)     -6.9359         0.002098   
    165. D(H   4,H  16,O  15,H  17)    119.4857         0.341260   
    166. D(O  15,H  16,O   3,H   5)    118.2613         0.002098   
    167. D(O  15,H  16,O   3,H   4)      3.1515         0.002098   
    -----------------------------------------------------------------

Number of atoms                         .... 18
Number of degrees of freedom            .... 167

         *************************************************************
         *                GEOMETRY OPTIMIZATION CYCLE   1            *
         *************************************************************
---------------------------------
CARTESIAN COORDINATES (ANGSTROEM)
---------------------------------
  O      0.116757    1.553296    0.874144
  H      0.955357    1.526953    0.363740
  H      0.278593    2.140101    1.614970
  O     -0.028991   -1.369570    0.910464
  H     -0.055528   -0.424567    1.109294
  H     -0.872074   -1.539194    0.457007
  O     -2.340721    1.363977   -0.433023
  H     -1.482171    1.543988   -0.013805
  H     -2.349173    1.886417   -1.236377
  O     -2.490803   -1.412790   -0.437012
  H     -2.562332   -0.444637   -0.504051
  H     -3.290032   -1.695404    0.010212
  O      2.424786    1.214249   -0.477895
  H      2.508896    0.237506   -0.500154
  H      2.554930    1.502809   -1.382466
  O      2.311940   -1.486888   -0.434852
  H      1.449966   -1.577886    0.025804
  H      2.919833   -2.054267    0.041233

----------------------------
CARTESIAN COORDINATES (A.U.)
----------------------------
  NO LB      ZA    FRAG     MASS         X           Y           Z
   0 O     8.0000    0    15.999    0.220639    2.935304    1.651893
   1 H     1.0000    0     1.008    1.805363    2.885523    0.687369
   2 H     1.0000    0     1.008    0.526464    4.044205    3.051851
   3 O     8.0000    0    15.999   -0.054785   -2.588112    1.720528
   4 H     1.0000    0     1.008   -0.104933   -0.802315    2.096262
   5 H     1.0000    0     1.008   -1.647981   -2.908655    0.863618
   6 O     8.0000    0    15.999   -4.423322    2.577543   -0.818295
   7 H     1.0000    0     1.008   -2.800897    2.917714   -0.026088
   8 H     1.0000    0     1.008   -4.439294    3.564812   -2.336414
   9 O     8.0000    0    15.999   -4.706936   -2.669786   -0.825833
  10 H     1.0000    0     1.008   -4.842106   -0.840242   -0.952518
  11 H     1.0000    0     1.008   -6.217259   -3.203849    0.019298
  12 O     8.0000    0    15.999    4.582181    2.294598   -0.903091
  13 H     1.0000    0     1.008    4.741126    0.448821   -0.945154
  14 H     1.0000    0     1.008    4.828118    2.839897   -2.612482
  15 O     8.0000    0    15.999    4.368933   -2.809811   -0.821751
  16 H     1.0000    0     1.008    2.740039   -2.981772    0.048762
  17 H     1.0000    0     1.008    5.517685   -3.882002    0.077919

--------------------------------
INTERNAL COORDINATES (ANGSTROEM)
--------------------------------
 O      0   0   0     0.000000000000     0.00000000     0.00000000
 H      1   0   0     0.982067287341     0.00000000     0.00000000
 H      1   2   0     0.958829578808   105.89325923     0.00000000
 O      1   2   3     2.926722958508    91.27121310   230.15359168
 H      4   1   2     0.966058099328    13.34597984   140.56968714
 H      4   1   2     0.972205995206   102.21849031   239.98902584
 O      1   2   3     2.789932861223   120.45305600   146.45374593
 H      7   1   2     0.972242662171     7.05835468   281.98792720
 H      7   1   2     0.958328043636   111.31762838   318.10503051
 O      6   4   1     1.853518685910   166.02711390     0.61250431
 H     10   6   4     0.973103723542    99.51313706   358.83694273
 H     10   6   4     0.958460731388   118.88606425   245.35748984
 O      2   1   3     1.722020572143   170.94714904   119.40344896
 H     13   2   1     0.980610444178   105.37651580     8.36351624
 H     13   2   1     0.958359550679   121.50142387   127.90872660
 O     14  13   2     1.736833522355   168.05371103    13.25357471
 H     16  14  13     0.981572087529   102.07957252   348.53406319
 H     16  14  13     0.958180440374   122.31942840   231.08426767

---------------------------
INTERNAL COORDINATES (A.U.)
---------------------------
 O      0   0   0     0.000000000000     0.00000000     0.00000000
 H      1   0   0     1.855838218157     0.00000000     0.00000000
 H      1   2   0     1.811925313050   105.89325923     0.00000000
 O      1   2   3     5.530704861441    91.27121310   230.15359168
 H      4   1   2     1.825585237187    13.34597984   140.56968714
 H      4   1   2     1.837203076695   102.21849031   239.98902584
 O      1   2   3     5.272209039739   120.45305600   146.45374593
 H      7   1   2     1.837272367217     7.05835468   281.98792720
 H      7   1   2     1.810977548929   111.31762838   318.10503051
 O      6   4   1     3.502642700476   166.02711390     0.61250431
 H     10   6   4     1.838899537393    99.51313706   358.83694273
 H     10   6   4     1.811228292441   118.88606425   245.35748984
 O      2   1   3     3.254147278328   170.94714904   119.40344896
 H     13   2   1     1.853085183558   105.37651580     8.36351624
 H     13   2   1     1.811037088610   121.50142387   127.90872660
 O     14  13   2     3.282139697465   168.05371103    13.25357471
 H     16  14  13     1.854902426131   102.07957252   348.53406319
 H     16  14  13     1.810698619187   122.31942840   231.08426767

---------------------
BASIS SET INFORMATION
---------------------
There are 2 groups of distinct atoms

 Group   1 Type O   : 19s6p3d2f contracted to 5s4p3d2f pattern {88111/3111/111/11}
 Group   2 Type H   : 6s3p2d contracted to 4s3p2d pattern {3111/111/11}

Atom   0O    basis set group =>   1
Atom   1H    basis set group =>   2
Atom   2H    basis set group =>   2
Atom   3O    basis set group =>   1
Atom   4H    basis set group =>   2
Atom   5H    basis set group =>   2
Atom   6O    basis set group =>   1
Atom   7H    basis set group =>   2
Atom   8H    basis set group =>   2
Atom   9O    basis set group =>   1
Atom  10H    basis set group =>   2
Atom  11H    basis set group =>   2
Atom  12O    basis set group =>   1
Atom  13H    basis set group =>   2
Atom  14H    basis set group =>   2
Atom  15O    basis set group =>   1
Atom  16H    basis set group =>   2
Atom  17H    basis set group =>   2
---------------------------------
AUXILIARY/J BASIS SET INFORMATION
---------------------------------
There are 2 groups of distinct atoms

 Group   1 Type O   : 12s5p4d2f1g contracted to 6s4p3d1f1g pattern {711111/2111/211/2/1}
 Group   2 Type H   : 5s2p1d contracted to 3s1p1d pattern {311/2/1}

Atom   0O    basis set group =>   1
Atom   1H    basis set group =>   2
Atom   2H    basis set group =>   2
Atom   3O    basis set group =>   1
Atom   4H    basis set group =>   2
Atom   5H    basis set group =>   2
Atom   6O    basis set group =>   1
Atom   7H    basis set group =>   2
Atom   8H    basis set group =>   2
Atom   9O    basis set group =>   1
Atom  10H    basis set group =>   2
Atom  11H    basis set group =>   2
Atom  12O    basis set group =>   1
Atom  13H    basis set group =>   2
Atom  14H    basis set group =>   2
Atom  15O    basis set group =>   1
Atom  16H    basis set group =>   2
Atom  17H    basis set group =>   2


           ************************************************************
           *        Program running with 24 parallel MPI-processes    *
           *              working on a common directory               *
           ************************************************************
------------------------------------------------------------------------------
                           ORCA GTO INTEGRAL CALCULATION
                           -- RI-GTO INTEGRALS CHOSEN --
------------------------------------------------------------------------------

                         BASIS SET STATISTICS AND STARTUP INFO

Gaussian basis set:
 # of primitive gaussian shells          ...  312
 # of primitive gaussian functions       ...  696
 # of contracted shells                  ...  192
 # of contracted basis functions         ...  552
 Highest angular momentum                ...    3
 Maximum contraction depth               ...    8
Auxiliary gaussian basis set:
 # of primitive gaussian shells          ...  240
 # of primitive gaussian functions       ...  612
 # of contracted shells                  ...  150
 # of contracted aux-basis functions     ...  426
 Highest angular momentum                ...    4
 Maximum contraction depth               ...    7
Ratio of auxiliary to basis functions    ...  0.77
Integral package used                  ... LIBINT
 One Electron integrals                  ... done
 Ordering auxiliary basis shells         ... done
 Integral threshhold             Thresh  ...  2.500e-11
 Primitive cut-off               TCut    ...  2.500e-12
 Pre-screening matrix                    ... done
 Shell pair data                         ... 
 Ordering of the shell pairs             ... done (   0.003 sec) 17028 of 18528 pairs
 Determination of significant pairs      ... done (   0.000 sec)
 Creation of shell pair data             ... done (   0.002 sec)
 Storage of shell pair data              ... done (   0.015 sec)
 Shell pair data done in (   0.020 sec)
 Computing two index integrals           ... done
 Cholesky decomposition of the V-matrix  ... done


Timings:
 Total evaluation time                   ...   0.522 sec (  0.009 min)
 One electron matrix time                ...   0.157 sec (  0.003 min) = 30.1%
 Schwartz matrix evaluation time         ...   0.239 sec (  0.004 min) = 45.7%
 Two index repulsion integral time       ...   0.004 sec (  0.000 min) =  0.8%
 Cholesky decomposition of V             ...   0.079 sec (  0.001 min) = 15.2%
 Three index repulsion integral time     ...   0.000 sec (  0.000 min) =  0.0%



           ************************************************************
           *        Program running with 24 parallel MPI-processes    *
           *              working on a common directory               *
           ************************************************************
-------------------------------------------------------------------------------
                                 ORCA SCF
-------------------------------------------------------------------------------

------------
SCF SETTINGS
------------
Hamiltonian:
 Density Functional     Method          .... DFT(GTOs)
 Exchange Functional    Exchange        .... SCAN
 Correlation Functional Correlation     .... SCAN
 Gradients option       PostSCFGGA      .... off
   Density functional embedding theory  .... OFF
   NL short-range parameter             ....  6.400000
 RI-approximation to the Coulomb term is turned on
   Number of auxiliary basis functions  .... 426


General Settings:
 Integral files         IntName         .... 07_H2O_6_book
 Hartree-Fock type      HFTyp           .... RHF
 Total Charge           Charge          ....    0
 Multiplicity           Mult            ....    1
 Number of Electrons    NEL             ....   60
 Basis Dimension        Dim             ....  552
 Nuclear Repulsion      ENuc            ....    284.3088335758 Eh

Convergence Acceleration:
 DIIS                   CNVDIIS         .... on
   Start iteration      DIISMaxIt       ....    12
   Startup error        DIISStart       ....  0.200000
   # of expansion vecs  DIISMaxEq       ....     5
   Bias factor          DIISBfac        ....   1.050
   Max. coefficient     DIISMaxC        ....  10.000
 Newton-Raphson         CNVNR           .... off
 SOSCF                  CNVSOSCF        .... on
   Start iteration      SOSCFMaxIt      ....   150
   Startup grad/error   SOSCFStart      ....  0.003300
 Level Shifting         CNVShift        .... on
   Level shift para.    LevelShift      ....    0.2500
   Turn off err/grad.   ShiftErr        ....    0.0010
 Zerner damping         CNVZerner       .... off
 Static damping         CNVDamp         .... on
   Fraction old density DampFac         ....    0.7000
   Max. Damping (<1)    DampMax         ....    0.9800
   Min. Damping (>=0)   DampMin         ....    0.0000
   Turn off err/grad.   DampErr         ....    0.1000
 Fernandez-Rico         CNVRico         .... off

SCF Procedure:
 Maximum # iterations   MaxIter         ....   125
 SCF integral mode      SCFMode         .... Direct
   Integral package                     .... LIBINT
 Reset frequency        DirectResetFreq ....    20
 Integral Threshold     Thresh          ....  2.500e-11 Eh
 Primitive CutOff       TCut            ....  2.500e-12 Eh

Convergence Tolerance:
 Convergence Check Mode ConvCheckMode   .... Total+1el-Energy
 Convergence forced     ConvForced      .... 0
 Energy Change          TolE            ....  1.000e-08 Eh
 1-El. energy change                    ....  1.000e-05 Eh
 Orbital Gradient       TolG            ....  1.000e-05
 Orbital Rotation angle TolX            ....  1.000e-05
 DIIS Error             TolErr          ....  5.000e-07


Diagonalization of the overlap matrix:
Smallest eigenvalue                        ... 3.910e-05
Time for diagonalization                   ...    0.050 sec
Threshold for overlap eigenvalues          ... 1.000e-08
Number of eigenvalues below threshold      ... 0
Time for construction of square roots      ...    0.044 sec
Total time needed                          ...    0.095 sec

-------------------
DFT GRID GENERATION
-------------------

General Integration Accuracy     IntAcc      ...  4.670
Radial Grid Type                 RadialGrid  ... Gauss-Chebyshev
Angular Grid (max. acc.)         AngularGrid ... Lebedev-302
Angular grid pruning method      GridPruning ... 3 (G Style)
Weight generation scheme         WeightScheme... Becke
Basis function cutoff            BFCut       ...    1.0000e-11
Integration weight cutoff        WCut        ...    1.0000e-14
Grids for H and He will be reduced by one unit

# of grid points (after initial pruning)     ...  78000 (   0.0 sec)
# of grid points (after weights+screening)   ...  72363 (   0.0 sec)
nearest neighbour list constructed           ...    0.0 sec
Grid point re-assignment to atoms done       ...    0.0 sec
Grid point division into batches done        ...    0.2 sec
Reduced shell lists constructed in    0.2 sec

Total number of grid points                  ...    72363
Total number of batches                      ...     1140
Average number of points per batch           ...       63
Average number of grid points per atom       ...     4020
Average number of shells per batch           ...   142.39 (74.16%)
Average number of basis functions per batch  ...   398.02 (72.11%)
Average number of large shells per batch     ...   115.82 (81.34%)
Average number of large basis fcns per batch ...   317.00 (79.64%)
Maximum spatial batch extension              ...   2.10,  2.67,  2.00 au
Average spatial batch extension              ...   0.04,  0.04,  0.04 au

Time for grid setup =    0.398 sec

------------------------------
INITIAL GUESS: MODEL POTENTIAL
------------------------------
Loading Hartree-Fock densities                     ... done
Calculating cut-offs                               ... done
Setting up the integral package                    ... done
Initializing the effective Hamiltonian             ... done
Starting the Coulomb interaction                   ... done (   0.0 sec)
Reading the grid                                   ... done
Mapping shells                                     ... done
Starting the XC term evaluation                    ... done (   0.2 sec)
  promolecular density results
     # of electrons  =     59.994928870
     EX              =    -57.928320016
     EC              =     -0.964589008
     EX+EC           =    -58.892909024
Transforming the Hamiltonian                       ... done (   0.0 sec)
Diagonalizing the Hamiltonian                      ... done (   0.0 sec)
Back transforming the eigenvectors                 ... done (   0.0 sec)
Now organizing SCF variables                       ... done
                      ------------------
                      INITIAL GUESS DONE (   0.7 sec)
                      ------------------
--------------
SCF ITERATIONS
--------------
ITER       Energy         Delta-E        Max-DP      RMS-DP      [F,P]     Damp
               ***  Starting incremental Fock matrix formation  ***
  0   -457.3913254279   0.000000000000 0.08036779  0.00108787  0.5557105 0.7000
  1   -458.0199895596  -0.628664131635 0.03047397  0.00052944  0.2242199 0.7000
                               ***Turning on DIIS***
  2   -458.2101783443  -0.190188784686 0.04273183  0.00065529  0.0590672 0.0000
  3   -458.5674606593  -0.357282315060 0.00565845  0.00010953  0.1233706 0.7000
  4   -458.5928837370  -0.025423077728 0.01864807  0.00035004  0.0944703 0.0000
  5   -458.6371859460  -0.044302208971 0.00523826  0.00006413  0.0045142 0.0000
                      *** Initiating the SOSCF procedure ***
                           *** Shutting down DIIS ***
                      *** Re-Reading the Fockian *** 
                      *** Removing any level shift *** 
ITER      Energy       Delta-E        Grad      Rot      Max-DP    RMS-DP
  6   -458.63737905  -0.0001931016  0.000449  0.000449  0.002075  0.000028
               *** Restarting incremental Fock matrix formation ***
  7   -458.63741977  -0.0000407212  0.000286  0.000887  0.002003  0.000026
  8   -458.63741443   0.0000053411  0.000359  0.000239  0.000542  0.000007
  9   -458.63742973  -0.0000152991  0.000022  0.000065  0.000311  0.000004
 10   -458.63742977  -0.0000000396  0.000014  0.000015  0.000042  0.000001
 11   -458.63742979  -0.0000000193  0.000008  0.000016  0.000073  0.000001
 12   -458.63742979  -0.0000000077  0.000004  0.000004  0.000014  0.000000
                  ***Gradient check signals convergence***
              ***Rediagonalizing the Fockian in SOSCF/NRSCF***

               *****************************************************
               *                     SUCCESS                       *
               *           SCF CONVERGED AFTER  13 CYCLES          *
               *****************************************************


----------------
TOTAL SCF ENERGY
----------------

Total Energy       :         -458.63742980 Eh          -12480.15894 eV

Components:
Nuclear Repulsion  :          284.30883358 Eh            7736.43667 eV
Electronic Energy  :         -742.94626337 Eh          -20216.59562 eV
One Electron Energy:        -1196.84303827 Eh          -32567.75478 eV
Two Electron Energy:          453.89677490 Eh           12351.15917 eV

Virial components:
Potential Energy   :         -914.85482930 Eh          -24894.46552 eV
Kinetic Energy     :          456.21739950 Eh           12414.30657 eV
Virial Ratio       :            2.00530456


DFT components:
N(Alpha)           :       30.000196752117 electrons
N(Beta)            :       30.000196752117 electrons
N(Total)           :       60.000393504233 electrons
E(X)               :      -53.919317436338 Eh       
E(C)               :       -1.940740671575 Eh       
E(XC)              :      -55.860058107913 Eh       
DFET-embed. en.    :        0.000000000000 Eh       

---------------
SCF CONVERGENCE
---------------

  Last Energy change         ...   -3.9697e-09  Tolerance :   1.0000e-08
  Last MAX-Density change    ...    1.0764e-05  Tolerance :   1.0000e-07
  Last RMS-Density change    ...    1.4131e-07  Tolerance :   5.0000e-09
  Last Orbital Gradient      ...    1.2629e-06  Tolerance :   1.0000e-05
  Last Orbital Rotation      ...    2.6590e-06  Tolerance :   1.0000e-05

             **** THE GBW FILE WAS UPDATED (07_H2O_6_book.gbw) ****
             **** DENSITY FILE WAS UPDATED (07_H2O_6_book.scfp) ****
             **** ENERGY FILE WAS UPDATED (07_H2O_6_book.en.tmp) ****
             **** THE GBW FILE WAS UPDATED (07_H2O_6_book.gbw) ****
             **** DENSITY FILE WAS UPDATED (07_H2O_6_book.scfp) ****
----------------
ORBITAL ENERGIES
----------------

  NO   OCC          E(Eh)            E(eV) 
   0   2.0000     -18.975357      -516.3457 
   1   2.0000     -18.965222      -516.0699 
   2   2.0000     -18.963453      -516.0218 
   3   2.0000     -18.952861      -515.7336 
   4   2.0000     -18.952513      -515.7241 
   5   2.0000     -18.939954      -515.3824 
   6   2.0000      -0.999542       -27.1989 
   7   2.0000      -0.985798       -26.8249 
   8   2.0000      -0.981471       -26.7072 
   9   2.0000      -0.972896       -26.4738 
  10   2.0000      -0.968858       -26.3640 
  11   2.0000      -0.954615       -25.9764 
  12   2.0000      -0.517996       -14.0954 
  13   2.0000      -0.507086       -13.7985 
  14   2.0000      -0.503387       -13.6979 
  15   2.0000      -0.493059       -13.4168 
  16   2.0000      -0.489294       -13.3144 
  17   2.0000      -0.475922       -12.9505 
  18   2.0000      -0.404664       -11.0115 
  19   2.0000      -0.379751       -10.3336 
  20   2.0000      -0.368958       -10.0399 
  21   2.0000      -0.357358        -9.7242 
  22   2.0000      -0.345071        -9.3899 
  23   2.0000      -0.325030        -8.8445 
  24   2.0000      -0.300316        -8.1720 
  25   2.0000      -0.289444        -7.8762 
  26   2.0000      -0.287863        -7.8331 
  27   2.0000      -0.278966        -7.5911 
  28   2.0000      -0.274444        -7.4680 
  29   2.0000      -0.266995        -7.2653 
  30   0.0000      -0.022994        -0.6257 
  31   0.0000       0.003099         0.0843 
  32   0.0000       0.010128         0.2756 
  33   0.0000       0.013634         0.3710 
  34   0.0000       0.025948         0.7061 
  35   0.0000       0.046873         1.2755 
  36   0.0000       0.049048         1.3347 
  37   0.0000       0.050921         1.3856 
  38   0.0000       0.056188         1.5290 
  39   0.0000       0.058776         1.5994 
  40   0.0000       0.069729         1.8974 
  41   0.0000       0.073752         2.0069 
  42   0.0000       0.087989         2.3943 
  43   0.0000       0.096981         2.6390 
  44   0.0000       0.102072         2.7775 
  45   0.0000       0.103820         2.8251 
  46   0.0000       0.107172         2.9163 
  47   0.0000       0.111620         3.0373 
  48   0.0000       0.119599         3.2545 
  49   0.0000       0.128315         3.4916 
  50   0.0000       0.134150         3.6504 
  51   0.0000       0.141371         3.8469 
  52   0.0000       0.148076         4.0293 
  53   0.0000       0.149827         4.0770 
  54   0.0000       0.159107         4.3295 
  55   0.0000       0.163156         4.4397 
  56   0.0000       0.165745         4.5102 
  57   0.0000       0.169214         4.6046 
  58   0.0000       0.176207         4.7948 
  59   0.0000       0.179137         4.8746 
  60   0.0000       0.187023         5.0891 
  61   0.0000       0.187299         5.0967 
  62   0.0000       0.189996         5.1700 
  63   0.0000       0.199465         5.4277 
  64   0.0000       0.200123         5.4456 
  65   0.0000       0.208976         5.6865 
  66   0.0000       0.213298         5.8041 
  67   0.0000       0.218383         5.9425 
  68   0.0000       0.227285         6.1847 
  69   0.0000       0.245700         6.6859 
  70   0.0000       0.247910         6.7460 
  71   0.0000       0.255107         6.9418 
  72   0.0000       0.257633         7.0106 
  73   0.0000       0.260861         7.0984 
  74   0.0000       0.276512         7.5243 
  75   0.0000       0.278716         7.5842 
  76   0.0000       0.280529         7.6336 
  77   0.0000       0.287696         7.8286 
  78   0.0000       0.293070         7.9748 
  79   0.0000       0.295307         8.0357 
  80   0.0000       0.305947         8.3253 
  81   0.0000       0.312231         8.4962 
  82   0.0000       0.325529         8.8581 
  83   0.0000       0.333981         9.0881 
  84   0.0000       0.337106         9.1731 
  85   0.0000       0.342238         9.3128 
  86   0.0000       0.345921         9.4130 
  87   0.0000       0.348429         9.4812 
  88   0.0000       0.355634         9.6773 
  89   0.0000       0.357720         9.7341 
  90   0.0000       0.363608         9.8943 
  91   0.0000       0.368063        10.0155 
  92   0.0000       0.372451        10.1349 
  93   0.0000       0.376053        10.2329 
  94   0.0000       0.380766        10.3612 
  95   0.0000       0.386346        10.5130 
  96   0.0000       0.390254        10.6194 
  97   0.0000       0.398029        10.8309 
  98   0.0000       0.403711        10.9855 
  99   0.0000       0.405743        11.0408 
 100   0.0000       0.410186        11.1617 
 101   0.0000       0.418052        11.3758 
 102   0.0000       0.420177        11.4336 
 103   0.0000       0.426567        11.6075 
 104   0.0000       0.435062        11.8386 
 105   0.0000       0.439696        11.9647 
 106   0.0000       0.461671        12.5627 
 107   0.0000       0.467984        12.7345 
 108   0.0000       0.479742        13.0544 
 109   0.0000       0.482711        13.1352 
 110   0.0000       0.498079        13.5534 
 111   0.0000       0.499527        13.5928 
 112   0.0000       0.509848        13.8737 
 113   0.0000       0.527753        14.3609 
 114   0.0000       0.545283        14.8379 
 115   0.0000       0.550864        14.9898 
 116   0.0000       0.557590        15.1728 
 117   0.0000       0.562078        15.2949 
 118   0.0000       0.574975        15.6459 
 119   0.0000       0.590878        16.0786 
 120   0.0000       0.607460        16.5298 
 121   0.0000       0.624719        16.9995 
 122   0.0000       0.632564        17.2129 
 123   0.0000       0.646354        17.5882 
 124   0.0000       0.653045        17.7703 
 125   0.0000       0.656180        17.8556 
 126   0.0000       0.659752        17.9528 
 127   0.0000       0.662279        18.0215 
 128   0.0000       0.671354        18.2685 
 129   0.0000       0.685665        18.6579 
 130   0.0000       0.693353        18.8671 
 131   0.0000       0.701834        19.0979 
 132   0.0000       0.703634        19.1469 
 133   0.0000       0.717980        19.5372 
 134   0.0000       0.721089        19.6218 
 135   0.0000       0.731638        19.9089 
 136   0.0000       0.742844        20.2138 
 137   0.0000       0.748380        20.3644 
 138   0.0000       0.755918        20.5696 
 139   0.0000       0.762332        20.7441 
 140   0.0000       0.769304        20.9338 
 141   0.0000       0.783678        21.3250 
 142   0.0000       0.788459        21.4551 
 143   0.0000       0.797104        21.6903 
 144   0.0000       0.804479        21.8910 
 145   0.0000       0.810780        22.0625 
 146   0.0000       0.825485        22.4626 
 147   0.0000       0.830750        22.6059 
 148   0.0000       0.833020        22.6676 
 149   0.0000       0.844203        22.9719 
 150   0.0000       0.846619        23.0377 
 151   0.0000       0.852383        23.1945 
 152   0.0000       0.856970        23.3193 
 153   0.0000       0.866526        23.5794 
 154   0.0000       0.869768        23.6676 
 155   0.0000       0.871980        23.7278 
 156   0.0000       0.874863        23.8062 
 157   0.0000       0.888475        24.1766 
 158   0.0000       0.890497        24.2317 
 159   0.0000       0.897191        24.4138 
 160   0.0000       0.902886        24.5688 
 161   0.0000       0.914418        24.8826 
 162   0.0000       0.915667        24.9166 
 163   0.0000       0.928051        25.2535 
 164   0.0000       0.931519        25.3479 
 165   0.0000       0.936243        25.4765 
 166   0.0000       0.943984        25.6871 
 167   0.0000       0.952418        25.9166 
 168   0.0000       0.968938        26.3661 
 169   0.0000       0.973798        26.4984 
 170   0.0000       0.979649        26.6576 
 171   0.0000       0.985453        26.8155 
 172   0.0000       0.998589        27.1730 
 173   0.0000       1.005894        27.3718 
 174   0.0000       1.014012        27.5927 
 175   0.0000       1.038673        28.2637 
 176   0.0000       1.045364        28.4458 
 177   0.0000       1.059056        28.8184 
 178   0.0000       1.063409        28.9368 
 179   0.0000       1.066347        29.0168 
 180   0.0000       1.078594        29.3500 
 181   0.0000       1.082317        29.4514 
 182   0.0000       1.093477        29.7550 
 183   0.0000       1.102092        29.9895 
 184   0.0000       1.105274        30.0760 
 185   0.0000       1.117149        30.3992 
 186   0.0000       1.122054        30.5327 
 187   0.0000       1.125946        30.6385 
 188   0.0000       1.133966        30.8568 
 189   0.0000       1.137403        30.9503 
 190   0.0000       1.151401        31.3312 
 191   0.0000       1.159409        31.5491 
 192   0.0000       1.162408        31.6307 
 193   0.0000       1.166613        31.7451 
 194   0.0000       1.171252        31.8714 
 195   0.0000       1.185380        32.2558 
 196   0.0000       1.194277        32.4979 
 197   0.0000       1.197742        32.5922 
 198   0.0000       1.202850        32.7312 
 199   0.0000       1.216490        33.1024 
 200   0.0000       1.219729        33.1905 
 201   0.0000       1.231157        33.5015 
 202   0.0000       1.233568        33.5671 
 203   0.0000       1.249866        34.0106 
 204   0.0000       1.254306        34.1314 
 205   0.0000       1.262855        34.3640 
 206   0.0000       1.272682        34.6314 
 207   0.0000       1.283804        34.9341 
 208   0.0000       1.290314        35.1112 
 209   0.0000       1.297953        35.3191 
 210   0.0000       1.311301        35.6823 
 211   0.0000       1.337723        36.4013 
 212   0.0000       1.344409        36.5832 
 213   0.0000       1.359104        36.9831 
 214   0.0000       1.367199        37.2034 
 215   0.0000       1.381253        37.5858 
 216   0.0000       1.384613        37.6772 
 217   0.0000       1.389865        37.8201 
 218   0.0000       1.404272        38.2122 
 219   0.0000       1.417734        38.5785 
 220   0.0000       1.427578        38.8464 
 221   0.0000       1.434163        39.0256 
 222   0.0000       1.437070        39.1047 
 223   0.0000       1.451546        39.4986 
 224   0.0000       1.474501        40.1232 
 225   0.0000       1.486213        40.4419 
 226   0.0000       1.492354        40.6090 
 227   0.0000       1.508177        41.0396 
 228   0.0000       1.514655        41.2159 
 229   0.0000       1.521102        41.3913 
 230   0.0000       1.530437        41.6453 
 231   0.0000       1.557520        42.3823 
 232   0.0000       1.572535        42.7909 
 233   0.0000       1.578139        42.9434 
 234   0.0000       1.587748        43.2048 
 235   0.0000       1.599011        43.5113 
 236   0.0000       1.613286        43.8997 
 237   0.0000       1.617525        44.0151 
 238   0.0000       1.626041        44.2468 
 239   0.0000       1.633119        44.4394 
 240   0.0000       1.653993        45.0074 
 241   0.0000       1.663266        45.2598 
 242   0.0000       1.665444        45.3190 
 243   0.0000       1.678746        45.6810 
 244   0.0000       1.695523        46.1375 
 245   0.0000       1.711211        46.5644 
 246   0.0000       1.714812        46.6624 
 247   0.0000       1.722756        46.8786 
 248   0.0000       1.738889        47.3176 
 249   0.0000       1.763588        47.9897 
 250   0.0000       1.794426        48.8288 
 251   0.0000       1.800861        49.0039 
 252   0.0000       1.819702        49.5166 
 253   0.0000       1.833720        49.8981 
 254   0.0000       1.842096        50.1260 
 255   0.0000       1.871799        50.9342 
 256   0.0000       1.874224        51.0002 
 257   0.0000       1.876505        51.0623 
 258   0.0000       1.888990        51.4020 
 259   0.0000       1.895371        51.5757 
 260   0.0000       1.916058        52.1386 
 261   0.0000       1.925024        52.3826 
 262   0.0000       1.958288        53.2877 
 263   0.0000       1.972345        53.6702 
 264   0.0000       1.991040        54.1789 
 265   0.0000       2.003486        54.5176 
 266   0.0000       2.036407        55.4135 
 267   0.0000       2.048123        55.7322 
 268   0.0000       2.104981        57.2795 
 269   0.0000       2.112387        57.4810 
 270   0.0000       2.159943        58.7751 
 271   0.0000       2.169720        59.0411 
 272   0.0000       2.175136        59.1885 
 273   0.0000       2.197146        59.7874 
 274   0.0000       2.207443        60.0676 
 275   0.0000       2.232803        60.7577 
 276   0.0000       2.241713        61.0001 
 277   0.0000       2.252225        61.2862 
 278   0.0000       2.254402        61.3454 
 279   0.0000       2.269813        61.7647 
 280   0.0000       2.275544        61.9207 
 281   0.0000       2.284505        62.1645 
 282   0.0000       2.295233        62.4565 
 283   0.0000       2.302489        62.6539 
 284   0.0000       2.328696        63.3670 
 285   0.0000       2.339298        63.6555 
 286   0.0000       2.353215        64.0342 
 287   0.0000       2.358323        64.1732 
 288   0.0000       2.370286        64.4988 
 289   0.0000       2.373026        64.5733 
 290   0.0000       2.385546        64.9140 
 291   0.0000       2.394747        65.1644 
 292   0.0000       2.402838        65.3845 
 293   0.0000       2.418962        65.8233 
 294   0.0000       2.438258        66.3484 
 295   0.0000       2.440558        66.4110 
 296   0.0000       2.452486        66.7355 
 297   0.0000       2.464416        67.0602 
 298   0.0000       2.480814        67.5064 
 299   0.0000       2.494868        67.8888 
 300   0.0000       2.510801        68.3224 
 301   0.0000       2.525931        68.7341 
 302   0.0000       2.538484        69.0757 
 303   0.0000       2.547198        69.3128 
 304   0.0000       2.555424        69.5366 
 305   0.0000       2.577692        70.1426 
 306   0.0000       2.584158        70.3185 
 307   0.0000       2.598519        70.7093 
 308   0.0000       2.615233        71.1641 
 309   0.0000       2.631692        71.6120 
 310   0.0000       2.636817        71.7514 
 311   0.0000       2.646485        72.0145 
 312   0.0000       2.651710        72.1567 
 313   0.0000       2.668900        72.6245 
 314   0.0000       2.687459        73.1295 
 315   0.0000       2.689188        73.1765 
 316   0.0000       2.704981        73.6063 
 317   0.0000       2.714329        73.8607 
 318   0.0000       2.738447        74.5169 
 319   0.0000       2.742178        74.6184 
 320   0.0000       2.749746        74.8244 
 321   0.0000       2.760111        75.1064 
 322   0.0000       2.772292        75.4379 
 323   0.0000       2.784639        75.7739 
 324   0.0000       2.797712        76.1296 
 325   0.0000       2.808076        76.4116 
 326   0.0000       2.834161        77.1214 
 327   0.0000       2.839938        77.2786 
 328   0.0000       2.856539        77.7304 
 329   0.0000       2.864635        77.9507 
 330   0.0000       2.882517        78.4373 
 331   0.0000       2.884486        78.4908 
 332   0.0000       2.908459        79.1432 
 333   0.0000       2.914049        79.2953 
 334   0.0000       2.933214        79.8168 
 335   0.0000       2.947996        80.2190 
 336   0.0000       2.963131        80.6309 
 337   0.0000       2.971251        80.8519 
 338   0.0000       2.994393        81.4816 
 339   0.0000       3.012150        81.9648 
 340   0.0000       3.030639        82.4679 
 341   0.0000       3.035304        82.5948 
 342   0.0000       3.045185        82.8637 
 343   0.0000       3.077339        83.7386 
 344   0.0000       3.085860        83.9705 
 345   0.0000       3.118437        84.8570 
 346   0.0000       3.143928        85.5506 
 347   0.0000       3.207859        87.2903 
 348   0.0000       3.689895       100.4071 
 349   0.0000       3.703631       100.7809 
 350   0.0000       3.711143       100.9853 
 351   0.0000       3.746472       101.9467 
 352   0.0000       3.780972       102.8855 
 353   0.0000       3.874023       105.4175 
 354   0.0000       3.895820       106.0107 
 355   0.0000       3.940789       107.2343 
 356   0.0000       3.942960       107.2934 
 357   0.0000       3.957726       107.6952 
 358   0.0000       3.966679       107.9388 
 359   0.0000       4.002640       108.9174 
 360   0.0000       4.004778       108.9755 
 361   0.0000       4.010858       109.1410 
 362   0.0000       4.016662       109.2989 
 363   0.0000       4.029374       109.6449 
 364   0.0000       4.045272       110.0774 
 365   0.0000       4.067559       110.6839 
 366   0.0000       4.085817       111.1807 
 367   0.0000       4.101924       111.6190 
 368   0.0000       4.116541       112.0168 
 369   0.0000       4.123847       112.2156 
 370   0.0000       4.132622       112.4544 
 371   0.0000       4.144110       112.7670 
 372   0.0000       4.154748       113.0564 
 373   0.0000       4.160513       113.2133 
 374   0.0000       4.163797       113.3027 
 375   0.0000       4.171829       113.5212 
 376   0.0000       4.186927       113.9321 
 377   0.0000       4.195668       114.1699 
 378   0.0000       4.214495       114.6822 
 379   0.0000       4.226308       115.0037 
 380   0.0000       4.235040       115.2413 
 381   0.0000       4.249099       115.6239 
 382   0.0000       4.265528       116.0709 
 383   0.0000       4.297780       116.9485 
 384   0.0000       4.340870       118.1211 
 385   0.0000       4.351362       118.4066 
 386   0.0000       4.364210       118.7562 
 387   0.0000       4.380062       119.1875 
 388   0.0000       4.390017       119.4584 
 389   0.0000       4.406494       119.9068 
 390   0.0000       4.417536       120.2073 
 391   0.0000       4.426848       120.4607 
 392   0.0000       4.431804       120.5955 
 393   0.0000       4.445048       120.9559 
 394   0.0000       4.460173       121.3675 
 395   0.0000       4.462690       121.4360 
 396   0.0000       4.481705       121.9534 
 397   0.0000       4.487784       122.1188 
 398   0.0000       4.490552       122.1941 
 399   0.0000       4.511113       122.7536 
 400   0.0000       4.524380       123.1146 
 401   0.0000       4.526914       123.1836 
 402   0.0000       4.542393       123.6048 
 403   0.0000       4.562563       124.1537 
 404   0.0000       4.575177       124.4969 
 405   0.0000       4.581285       124.6631 
 406   0.0000       4.600288       125.1802 
 407   0.0000       4.615173       125.5853 
 408   0.0000       4.624794       125.8470 
 409   0.0000       4.633112       126.0734 
 410   0.0000       4.657167       126.7280 
 411   0.0000       4.678000       127.2948 
 412   0.0000       4.687326       127.5486 
 413   0.0000       4.712637       128.2374 
 414   0.0000       4.725694       128.5927 
 415   0.0000       4.735240       128.8524 
 416   0.0000       4.768922       129.7690 
 417   0.0000       4.801175       130.6466 
 418   0.0000       4.838621       131.6656 
 419   0.0000       4.846776       131.8875 
 420   0.0000       4.888694       133.0281 
 421   0.0000       4.890433       133.0755 
 422   0.0000       4.917053       133.7998 
 423   0.0000       4.939933       134.4224 
 424   0.0000       4.953297       134.7861 
 425   0.0000       4.979799       135.5072 
 426   0.0000       5.010526       136.3433 
 427   0.0000       5.020398       136.6120 
 428   0.0000       5.038758       137.1116 
 429   0.0000       5.063167       137.7758 
 430   0.0000       5.091143       138.5371 
 431   0.0000       5.109139       139.0267 
 432   0.0000       5.118151       139.2720 
 433   0.0000       5.138924       139.8372 
 434   0.0000       5.143467       139.9609 
 435   0.0000       5.153898       140.2447 
 436   0.0000       5.170641       140.7003 
 437   0.0000       5.181357       140.9919 
 438   0.0000       5.192968       141.3079 
 439   0.0000       5.203871       141.6045 
 440   0.0000       5.219549       142.0312 
 441   0.0000       5.231822       142.3651 
 442   0.0000       5.246614       142.7676 
 443   0.0000       5.264068       143.2426 
 444   0.0000       5.277680       143.6130 
 445   0.0000       5.314806       144.6232 
 446   0.0000       5.319935       144.7628 
 447   0.0000       5.355201       145.7224 
 448   0.0000       5.372868       146.2032 
 449   0.0000       5.398234       146.8934 
 450   0.0000       5.440037       148.0309 
 451   0.0000       5.492509       149.4588 
 452   0.0000       5.526800       150.3919 
 453   0.0000       5.538654       150.7144 
 454   0.0000       5.575836       151.7262 
 455   0.0000       5.582603       151.9104 
 456   0.0000       5.647187       153.6678 
 457   0.0000       5.675949       154.4504 
 458   0.0000       5.706740       155.2883 
 459   0.0000       5.714669       155.5041 
 460   0.0000       5.776745       157.1932 
 461   0.0000       5.859136       159.4352 
 462   0.0000       6.126719       166.7165 
 463   0.0000       6.141722       167.1248 
 464   0.0000       6.187191       168.3620 
 465   0.0000       6.197546       168.6438 
 466   0.0000       6.214053       169.0930 
 467   0.0000       6.306733       171.6149 
 468   0.0000       6.309214       171.6824 
 469   0.0000       6.330309       172.2565 
 470   0.0000       6.336652       172.4291 
 471   0.0000       6.368684       173.3007 
 472   0.0000       6.392729       173.9550 
 473   0.0000       6.410478       174.4380 
 474   0.0000       6.600070       179.5970 
 475   0.0000       6.631951       180.4646 
 476   0.0000       6.643382       180.7756 
 477   0.0000       6.667547       181.4332 
 478   0.0000       6.671757       181.5477 
 479   0.0000       6.718159       182.8104 
 480   0.0000       6.731237       183.1663 
 481   0.0000       6.758319       183.9032 
 482   0.0000       6.774427       184.3415 
 483   0.0000       6.788616       184.7276 
 484   0.0000       6.819340       185.5637 
 485   0.0000       6.848085       186.3459 
 486   0.0000       6.930233       188.5812 
 487   0.0000       6.958628       189.3539 
 488   0.0000       6.966362       189.5643 
 489   0.0000       6.974957       189.7982 
 490   0.0000       6.991714       190.2542 
 491   0.0000       6.998853       190.4485 
 492   0.0000       7.013122       190.8367 
 493   0.0000       7.027737       191.2344 
 494   0.0000       7.034789       191.4263 
 495   0.0000       7.049052       191.8145 
 496   0.0000       7.059238       192.0916 
 497   0.0000       7.070980       192.4111 
 498   0.0000       7.084047       192.7667 
 499   0.0000       7.097688       193.1379 
 500   0.0000       7.109615       193.4625 
 501   0.0000       7.116809       193.6582 
 502   0.0000       7.122608       193.8160 
 503   0.0000       7.136362       194.1903 
 504   0.0000       7.143493       194.3843 
 505   0.0000       7.158443       194.7911 
 506   0.0000       7.165800       194.9913 
 507   0.0000       7.176699       195.2879 
 508   0.0000       7.185242       195.5204 
 509   0.0000       7.196711       195.8325 
 510   0.0000       7.215995       196.3572 
 511   0.0000       7.231460       196.7780 
 512   0.0000       7.237116       196.9319 
 513   0.0000       7.239432       196.9949 
 514   0.0000       7.259508       197.5413 
 515   0.0000       7.277370       198.0273 
 516   0.0000       7.294788       198.5013 
 517   0.0000       7.297969       198.5878 
 518   0.0000       7.331125       199.4901 
 519   0.0000       7.351536       200.0455 
 520   0.0000       7.400768       201.3851 
 521   0.0000       7.480709       203.5604 
 522   0.0000       7.510118       204.3607 
 523   0.0000       7.598273       206.7595 
 524   0.0000       7.612247       207.1398 
 525   0.0000       7.664461       208.5606 
 526   0.0000       7.711210       209.8327 
 527   0.0000       7.749284       210.8687 
 528   0.0000       7.761473       211.2004 
 529   0.0000       7.766373       211.3338 
 530   0.0000       7.771604       211.4761 
 531   0.0000       7.794638       212.1029 
 532   0.0000       7.802734       212.3232 
 533   0.0000       7.820286       212.8008 
 534   0.0000       7.848759       213.5756 
 535   0.0000       7.871422       214.1923 
 536   0.0000       7.889305       214.6789 
 537   0.0000       7.921898       215.5658 
 538   0.0000       7.938792       216.0255 
 539   0.0000       8.003321       217.7814 
 540   0.0000       8.679944       236.1933 
 541   0.0000       8.711097       237.0410 
 542   0.0000       8.719941       237.2817 
 543   0.0000       8.749077       238.0745 
 544   0.0000       8.774166       238.7572 
 545   0.0000       8.808720       239.6975 
 546   0.0000      15.759026       428.8249 
 547   0.0000      16.200915       440.8493 
 548   0.0000      16.475607       448.3241 
 549   0.0000      16.949139       461.2095 
 550   0.0000      17.152607       466.7462 
 551   0.0000      17.561331       477.8681 

                    ********************************
                    * MULLIKEN POPULATION ANALYSIS *
                    ********************************

-----------------------
MULLIKEN ATOMIC CHARGES
-----------------------
   0 O :   -0.525961
   1 H :    0.319425
   2 H :    0.163751
   3 O :   -0.544201
   4 H :    0.287055
   5 H :    0.269850
   6 O :   -0.463656
   7 H :    0.300702
   8 H :    0.168503
   9 O :   -0.446172
  10 H :    0.293311
  11 H :    0.160028
  12 O :   -0.411366
  13 H :    0.276213
  14 H :    0.147467
  15 O :   -0.425884
  16 H :    0.287677
  17 H :    0.143258
Sum of atomic charges:    0.0000000

--------------------------------
MULLIKEN REDUCED ORBITAL CHARGES
--------------------------------
  0 O s       :     4.027318  s :     4.027318
      pz      :     1.390343  p :     4.494376
      px      :     1.493287
      py      :     1.610746
      dz2     :    -0.000055  d :     0.004521
      dxz     :     0.001298
      dyz     :    -0.001973
      dx2y2   :     0.004148
      dxy     :     0.001104
      f0      :    -0.000067  f :    -0.000255
      f+1     :    -0.000003
      f-1     :    -0.000065
      f+2     :    -0.000181
      f-2     :     0.000096
      f+3     :    -0.000016
      f-3     :    -0.000019
  1 H s       :     0.576894  s :     0.576894
      pz      :     0.027518  p :     0.058029
      px      :    -0.015094
      py      :     0.045605
      dz2     :     0.012149  d :     0.045653
      dxz     :     0.007846
      dyz     :     0.007806
      dx2y2   :     0.004870
      dxy     :     0.012981
  2 H s       :     0.708353  s :     0.708353
      pz      :     0.026499  p :     0.108199
      px      :     0.037763
      py      :     0.043937
      dz2     :     0.007033  d :     0.019697
      dxz     :     0.005753
      dyz     :     0.002749
      dx2y2   :     0.002216
      dxy     :     0.001945
  3 O s       :     4.023978  s :     4.023978
      pz      :     1.700157  p :     4.510940
      px      :     1.462507
      py      :     1.348276
      dz2     :     0.001231  d :     0.009359
      dxz     :    -0.000900
      dyz     :     0.000903
      dx2y2   :     0.006812
      dxy     :     0.001314
      f0      :     0.000047  f :    -0.000076
      f+1     :     0.000012
      f-1     :     0.000127
      f+2     :    -0.000103
      f-2     :    -0.000025
      f+3     :     0.000034
      f-3     :    -0.000168
  4 H s       :     0.586416  s :     0.586416
      pz      :     0.061231  p :     0.100134
      px      :     0.045147
      py      :    -0.006244
      dz2     :     0.002174  d :     0.026394
      dxz     :     0.001341
      dyz     :     0.011508
      dx2y2   :     0.000563
      dxy     :     0.010809
  5 H s       :     0.595373  s :     0.595373
      pz      :     0.041518  p :     0.095639
      px      :     0.023508
      py      :     0.030613
      dz2     :     0.012025  d :     0.039137
      dxz     :     0.006773
      dyz     :     0.002476
      dx2y2   :     0.010824
      dxy     :     0.007038
  6 O s       :     3.948062  s :     3.948062
      pz      :     1.373197  p :     4.507942
      px      :     1.481315
      py      :     1.653429
      dz2     :    -0.000703  d :     0.007628
      dxz     :     0.002591
      dyz     :     0.001185
      dx2y2   :     0.003040
      dxy     :     0.001515
      f0      :    -0.000027  f :     0.000026
      f+1     :     0.000009
      f-1     :     0.000055
      f+2     :     0.000098
      f-2     :     0.000037
      f+3     :    -0.000076
      f-3     :    -0.000071
  7 H s       :     0.596286  s :     0.596286
      pz      :     0.032837  p :     0.070514
      px      :    -0.019659
      py      :     0.057336
      dz2     :     0.007255  d :     0.032498
      dxz     :     0.006467
      dyz     :     0.003953
      dx2y2   :     0.006443
      dxy     :     0.008381
  8 H s       :     0.709626  s :     0.709626
      pz      :     0.023513  p :     0.103811
      px      :     0.035205
      py      :     0.045093
      dz2     :     0.005895  d :     0.018060
      dxz     :     0.004644
      dyz     :     0.003643
      dx2y2   :     0.002405
      dxy     :     0.001473
  9 O s       :     3.929292  s :     3.929292
      pz      :     1.716567  p :     4.504951
      px      :     1.450871
      py      :     1.337514
      dz2     :     0.002864  d :     0.011819
      dxz     :    -0.000266
      dyz     :     0.000804
      dx2y2   :     0.007433
      dxy     :     0.000984
      f0      :     0.000083  f :     0.000109
      f+1     :     0.000043
      f-1     :     0.000130
      f+2     :     0.000015
      f-2     :    -0.000032
      f+3     :     0.000020
      f-3     :    -0.000150
 10 H s       :     0.599282  s :     0.599282
      pz      :     0.053315  p :     0.070357
      px      :     0.036940
      py      :    -0.019899
      dz2     :     0.001734  d :     0.037050
      dxz     :     0.000452
      dyz     :     0.016671
      dx2y2   :     0.003960
      dxy     :     0.014234
 11 H s       :     0.710920  s :     0.710920
      pz      :     0.044946  p :     0.110402
      px      :     0.031400
      py      :     0.034055
      dz2     :     0.005865  d :     0.018650
      dxz     :     0.003129
      dyz     :     0.001519
      dx2y2   :     0.004948
      dxy     :     0.003189
 12 O s       :     3.917048  s :     3.917048
      pz      :     1.334756  p :     4.485899
      px      :     1.795222
      py      :     1.355921
      dz2     :     0.001824  d :     0.008495
      dxz     :     0.000272
      dyz     :     0.000714
      dx2y2   :     0.004636
      dxy     :     0.001049
      f0      :     0.000107  f :    -0.000075
      f+1     :     0.000123
      f-1     :    -0.000227
      f+2     :    -0.000132
      f-2     :     0.000003
      f+3     :    -0.000011
      f-3     :     0.000061
 13 H s       :     0.608518  s :     0.608518
      pz      :     0.031382  p :     0.073261
      px      :     0.054458
      py      :    -0.012578
      dz2     :     0.001299  d :     0.042007
      dxz     :     0.000457
      dyz     :     0.013744
      dx2y2   :     0.004519
      dxy     :     0.021988
 14 H s       :     0.721342  s :     0.721342
      pz      :     0.018274  p :     0.111151
      px      :     0.057798
      py      :     0.035079
      dz2     :     0.003836  d :     0.020040
      dxz     :     0.009455
      dyz     :     0.003522
      dx2y2   :     0.001748
      dxy     :     0.001479
 15 O s       :     3.919677  s :     3.919677
      pz      :     1.600153  p :     4.496202
      px      :     1.282472
      py      :     1.613577
      dz2     :     0.000830  d :     0.010054
      dxz     :     0.005155
      dyz     :     0.001847
      dx2y2   :     0.001478
      dxy     :     0.000744
      f0      :     0.000057  f :    -0.000050
      f+1     :     0.000015
      f-1     :    -0.000059
      f+2     :    -0.000025
      f-2     :     0.000150
      f+3     :     0.000043
      f-3     :    -0.000231
 16 H s       :     0.607285  s :     0.607285
      pz      :     0.022862  p :     0.060034
      px      :    -0.005483
      py      :     0.042656
      dz2     :     0.008506  d :     0.045004
      dxz     :     0.006543
      dyz     :     0.004134
      dx2y2   :     0.007910
      dxy     :     0.017910
 17 H s       :     0.725750  s :     0.725750
      pz      :     0.036768  p :     0.111827
      px      :     0.031846
      py      :     0.043213
      dz2     :     0.004050  d :     0.019165
      dxz     :     0.002995
      dyz     :     0.001842
      dx2y2   :     0.007187
      dxy     :     0.003090


                     *******************************
                     * LOEWDIN POPULATION ANALYSIS *
                     *******************************

----------------------
LOEWDIN ATOMIC CHARGES
----------------------
   0 O :    1.150052
   1 H :   -0.657265
   2 H :   -0.430788
   3 O :    1.142757
   4 H :   -0.582617
   5 H :   -0.626720
   6 O :    1.122462
   7 H :   -0.650829
   8 H :   -0.461828
   9 O :    1.111867
  10 H :   -0.659146
  11 H :   -0.467909
  12 O :    1.130704
  13 H :   -0.666666
  14 H :   -0.452143
  15 O :    1.123930
  16 H :   -0.668998
  17 H :   -0.456861

-------------------------------
LOEWDIN REDUCED ORBITAL CHARGES
-------------------------------
  0 O s       :     2.935478  s :     2.935478
      pz      :     1.216884  p :     3.779963
      px      :     1.266749
      py      :     1.296330
      dz2     :     0.012203  d :     0.114974
      dxz     :     0.034881
      dyz     :     0.025267
      dx2y2   :     0.037377
      dxy     :     0.005245
      f0      :     0.002104  f :     0.019533
      f+1     :     0.001154
      f-1     :     0.004399
      f+2     :     0.006399
      f-2     :     0.001287
      f+3     :     0.003031
      f-3     :     0.001160
  1 H s       :     0.530877  s :     0.530877
      pz      :     0.187011  p :     0.621416
      px      :     0.295384
      py      :     0.139021
      dz2     :     0.094162  d :     0.504971
      dxz     :     0.141860
      dyz     :     0.047920
      dx2y2   :     0.115065
      dxy     :     0.105964
  2 H s       :     0.577269  s :     0.577269
      pz      :     0.192435  p :     0.514461
      px      :     0.138518
      py      :     0.183508
      dz2     :     0.096142  d :     0.339058
      dxz     :     0.074504
      dyz     :     0.085499
      dx2y2   :     0.039753
      dxy     :     0.043159
  3 O s       :     2.945292  s :     2.945292
      pz      :     1.333567  p :     3.792075
      px      :     1.243627
      py      :     1.214881
      dz2     :     0.008316  d :     0.100952
      dxz     :     0.029152
      dyz     :     0.007196
      dx2y2   :     0.049314
      dxy     :     0.006974
      f0      :     0.002714  f :     0.018924
      f+1     :     0.000667
      f-1     :     0.001715
      f+2     :     0.005186
      f-2     :     0.000695
      f+3     :     0.002786
      f-3     :     0.005160
  4 H s       :     0.555586  s :     0.555586
      pz      :     0.156576  p :     0.583331
      px      :     0.133987
      py      :     0.292768
      dz2     :     0.052136  d :     0.443699
      dxz     :     0.009077
      dyz     :     0.126067
      dx2y2   :     0.129148
      dxy     :     0.127271
  5 H s       :     0.548301  s :     0.548301
      pz      :     0.196692  p :     0.603793
      px      :     0.276545
      py      :     0.130555
      dz2     :     0.075113  d :     0.474626
      dxz     :     0.145274
      dyz     :     0.037510
      dx2y2   :     0.114095
      dxy     :     0.102634
  6 O s       :     2.957804  s :     2.957804
      pz      :     1.219947  p :     3.806161
      px      :     1.281295
      py      :     1.304920
      dz2     :     0.017538  d :     0.095473
      dxz     :     0.016355
      dyz     :     0.024571
      dx2y2   :     0.031261
      dxy     :     0.005748
      f0      :     0.001821  f :     0.018100
      f+1     :     0.000216
      f-1     :     0.006477
      f+2     :     0.003731
      f-2     :     0.000923
      f+3     :     0.002381
      f-3     :     0.002552
  7 H s       :     0.549766  s :     0.549766
      pz      :     0.170857  p :     0.613774
      px      :     0.294568
      py      :     0.148348
      dz2     :     0.080852  d :     0.487290
      dxz     :     0.141422
      dyz     :     0.033816
      dx2y2   :     0.121146
      dxy     :     0.110054
  8 H s       :     0.582517  s :     0.582517
      pz      :     0.213441  p :     0.533478
      px      :     0.142192
      py      :     0.177846
      dz2     :     0.103999  d :     0.345832
      dxz     :     0.089257
      dyz     :     0.089736
      dx2y2   :     0.032173
      dxy     :     0.030668
  9 O s       :     2.963840  s :     2.963840
      pz      :     1.350029  p :     3.813130
      px      :     1.243611
      py      :     1.219490
      dz2     :     0.009816  d :     0.093436
      dxz     :     0.023543
      dyz     :     0.004282
      dx2y2   :     0.044563
      dxy     :     0.011232
      f0      :     0.001949  f :     0.017728
      f+1     :     0.000577
      f-1     :     0.002313
      f+2     :     0.003676
      f-2     :     0.001470
      f+3     :     0.002252
      f-3     :     0.005491
 10 H s       :     0.548133  s :     0.548133
      pz      :     0.152736  p :     0.620111
      px      :     0.137037
      py      :     0.330338
      dz2     :     0.051644  d :     0.490902
      dxz     :     0.003373
      dyz     :     0.143536
      dx2y2   :     0.144240
      dxy     :     0.148109
 11 H s       :     0.583850  s :     0.583850
      pz      :     0.187753  p :     0.537109
      px      :     0.212901
      py      :     0.136455
      dz2     :     0.061419  d :     0.346951
      dxz     :     0.091485
      dyz     :     0.032886
      dx2y2   :     0.084247
      dxy     :     0.076914
 12 O s       :     2.948274  s :     2.948274
      pz      :     1.220780  p :     3.798058
      px      :     1.357785
      py      :     1.219493
      dz2     :     0.034536  d :     0.103705
      dxz     :     0.016109
      dyz     :     0.013686
      dx2y2   :     0.033752
      dxy     :     0.005622
      f0      :     0.005285  f :     0.019259
      f+1     :     0.001028
      f-1     :     0.004952
      f+2     :     0.001701
      f-2     :     0.000711
      f+3     :     0.001144
      f-3     :     0.004439
 13 H s       :     0.533538  s :     0.533538
      pz      :     0.131762  p :     0.627318
      px      :     0.146687
      py      :     0.348870
      dz2     :     0.047211  d :     0.505809
      dxz     :     0.001657
      dyz     :     0.160282
      dx2y2   :     0.151933
      dxy     :     0.144727
 14 H s       :     0.580627  s :     0.580627
      pz      :     0.234742  p :     0.528265
      px      :     0.158430
      py      :     0.135093
      dz2     :     0.117881  d :     0.343251
      dxz     :     0.098312
[...]
The final length of the internal step   ....  0.300000000
Converting the step to cartesian space:
 Initial RMS(Int)=    0.0199557032
Transforming coordinates:
 Iter   0:  RMS(Cart)=    0.0624061767 RMS(Int)=    0.0202235564
 Iter   1:  RMS(Cart)=    0.0010191016 RMS(Int)=    0.0008808762
 Iter   2:  RMS(Cart)=    0.0000309808 RMS(Int)=    0.0000208509
 Iter   3:  RMS(Cart)=    0.0000017161 RMS(Int)=    0.0000021216
 Iter   4:  RMS(Cart)=    0.0000001766 RMS(Int)=    0.0000002613
 Iter   5:  RMS(Cart)=    0.0000000214 RMS(Int)=    0.0000000325
done
Storing new coordinates                 .... done

                                .--------------------.
          ----------------------|Geometry convergence|-------------------------
          Item                value                   Tolerance       Converged
          ---------------------------------------------------------------------
          Energy change       0.0027783621            0.0000050000      NO
          RMS gradient        0.0045102617            0.0001000000      NO
          MAX gradient        0.0315650727            0.0003000000      NO
          RMS step            0.0199557032            0.0020000000      NO
          MAX step            0.1348324901            0.0040000000      NO
          ........................................................
          Max(Bonds)      0.0714      Max(Angles)    2.32
          Max(Dihed)        3.68      Max(Improp)    0.00
          ---------------------------------------------------------------------

The optimization has not yet converged - more geometry cycles are needed


    ---------------------------------------------------------------------------
                         Redundant Internal Coordinates
                            (Angstroem and degrees)

        Definition                    Value    dE/dq     Step     New-Value
    ----------------------------------------------------------------------------
     1. B(H   1,O   0)                0.9588  0.002063 -0.0027    0.9560   
     2. B(H   2,O   0)                0.9509  0.004981 -0.0044    0.9465   
     3. B(H   4,H   1)                2.4822 -0.010052  0.0248    2.5070   
     4. B(H   4,O   3)                0.9840 -0.003078  0.0049    0.9889   
     5. B(H   4,O   0)                2.4912 -0.010634  0.0279    2.5190   
     6. B(H   5,O   3)                0.9877 -0.004042  0.0055    0.9932   
     7. B(H   7,H   1)                1.8196 -0.001879  0.0044    1.8240   
     8. B(H   7,O   3)                2.6604 -0.012190  0.0284    2.6888   
     9. B(H   7,O   0)                2.0205  0.003493 -0.0064    2.0141   
    10. B(H   7,H   4)                2.0403 -0.005734  0.0150    2.0553   
    11. B(H   7,O   6)                0.9321  0.001769 -0.0006    0.9315   
    12. B(H   8,O   6)                0.9362 -0.000138  0.0023    0.9385   
    13. B(O   9,H   5)                2.9160 -0.031565  0.0714    2.9874   
    14. B(H  10,H   5)                2.6090 -0.024458  0.0639    2.6728   
    15. B(H  10,O   9)                0.9321 -0.011690 -0.0052    0.9269   
    16. B(H  11,O   9)                0.9527 -0.003481 -0.0002    0.9526   
    17. B(O  12,O   6)                2.8879  0.000126 -0.0020    2.8859   
    18. B(O  12,H   1)                2.3597 -0.004778  0.0138    2.3735   
    19. B(O  12,H   7)                2.8619 -0.001958  0.0066    2.8685   
    20. B(O  12,H   8)                2.9585 -0.004584  0.0096    2.9680   
    21. B(H  13,H   4)                2.8303  0.004395 -0.0109    2.8194   
    22. B(H  13,O   3)                2.7614  0.009357 -0.0237    2.7377   
    23. B(H  13,H   1)                2.3872 -0.009159  0.0187    2.4060   
    24. B(H  13,O  12)                0.9551  0.003573  0.0001    0.9553   
    25. B(H  14,O   6)                2.7715  0.000584 -0.0005    2.7710   
    26. B(H  14,H   5)                2.4282  0.012735 -0.0286    2.3996   
    27. B(H  14,O   3)                2.6903  0.005316 -0.0133    2.6770   
    28. B(H  14,O  12)                0.9383 -0.010592  0.0052    0.9435   
    29. B(H  14,H   8)                2.9011 -0.005937  0.0149    2.9160   
    30. B(H  14,H   7)                2.9937 -0.003689  0.0082    3.0018   
    31. B(O  15,H  13)                2.3619 -0.008110  0.0201    2.3820   
    32. B(H  16,H   4)                2.1145 -0.001106 -0.0001    2.1144   
    33. B(H  16,O  15)                0.9603  0.004486 -0.0046    0.9557   
    34. B(H  16,O   3)                2.2766 -0.003793  0.0067    2.2833   
    35. B(H  16,H  13)                2.2450 -0.001037 -0.0030    2.2420   
    36. B(H  17,O  15)                0.9441 -0.002112  0.0020    0.9461   
    37. B(H  17,H   2)                2.3360  0.002655 -0.0082    2.3279   
    38. B(H  17,O   0)                2.6378  0.004820 -0.0096    2.6282   
    39. A(H   4,O   0,H  17)           78.46  0.000660   -0.04     78.42   
    40. A(H   4,O   0,H   7)           52.52 -0.000006   -0.01     52.51   
    41. A(H   2,O   0,H   4)          133.48 -0.000924    0.27    133.74   
    42. A(H   1,O   0,H  17)           94.81 -0.000211    0.23     95.04   
    43. A(H   1,O   0,H   7)           64.13 -0.002786    0.61     64.73   
    44. A(H   1,O   0,H   2)          124.67  0.001535   -0.30    124.36   
    45. A(H   2,O   0,H  17)           61.35 -0.000662    0.01     61.37   
    46. A(H   2,O   0,H   7)          168.18  0.001592   -0.39    167.79   
    47. A(H   7,O   0,H  17)          128.63 -0.000376    0.24    128.87   
    48. A(H   1,O   0,H   4)           78.36 -0.000330   -0.03     78.33   
    49. A(O   0,H   1,H   7)           87.57  0.002606   -0.61     86.97   
    50. A(H   4,H   1,H   7)           54.00  0.000460   -0.09     53.91   
    51. A(O   0,H   1,H   4)           79.41 -0.000984    0.33     79.75   
    52. A(O   0,H   2,H  17)           97.72 -0.000030   -0.01     97.70   
    53. A(H   5,O   3,H   7)           99.69 -0.003478    1.20    100.89   
    54. A(H   7,O   3,H  16)           94.00  0.003977   -1.08     92.92   
    55. A(H   4,O   3,H  16)           67.97  0.001350   -0.37     67.60   
    56. A(H   4,O   3,H   7)           42.13  0.002650   -0.64     41.49   
    57. A(H   4,O   3,H   5)          140.25 -0.000999    0.65    140.90   
    58. A(H   5,O   3,H  16)          140.39  0.000923   -0.60    139.80   
    59. A(O   0,H   4,O   3)          147.51  0.001499   -0.53    146.98   
    60. A(H   1,H   4,H  16)           75.48  0.002483   -0.77     74.70   
    61. A(O   0,H   4,H  16)           77.76  0.002535   -0.85     76.91   
    62. A(O   3,H   4,H  16)           86.47 -0.000951    0.31     86.78   
    63. A(O   0,H   4,H   1)           22.23  0.001313   -0.31     21.92   
    64. A(H   1,H   4,O   3)          126.05  0.000152   -0.20    125.85   
    65. A(H   7,H   4,H  16)          121.21  0.003327   -0.97    120.24   
    66. A(O   3,H   4,H   7)          119.00 -0.003594    0.92    119.92   
    67. A(O   0,H   4,H   7)           51.80  0.003047   -0.78     51.02   
    68. A(H   1,H   4,H   7)           46.18  0.001329   -0.36     45.82   
    69. A(O   3,H   5,O   9)          142.50 -0.008243   -0.34    142.16   
    70. A(O   9,H   5,H  10)           18.36 -0.000197   -0.62     17.74   
    71. A(H   7,O   6,O  12)           79.10 -0.001327    0.53     79.63   
    72. A(H   8,O   6,O  12)           85.08 -0.002715    0.68     85.76   
    73. A(H   7,O   6,H   8)          114.56  0.002036   -0.32    114.24   
    74. A(H   1,H   7,H   4)           79.82 -0.001789    0.45     80.27   
    75. A(H   4,H   7,O   6)          114.77  0.001524   -0.38    114.39   
    76. A(H   1,H   7,O   3)           87.72 -0.000323   -0.00     87.72   
    77. A(O   0,H   7,H   1)           28.30  0.000180    0.00     28.30   
    78. A(O   0,H   7,O   3)           90.80 -0.001526    0.34     91.14   
    79. A(O   3,H   7,O   6)           96.46  0.000440   -0.07     96.39   
    80. A(H   1,H   7,O   6)          128.96  0.001635   -0.70    128.26   
    81. A(O   0,H   7,H   4)           75.68 -0.003041    0.79     76.47   
    82. A(O   0,H   7,O   6)          156.02  0.002192   -0.79    155.23   
    83. A(O   3,H   7,H   4)           18.87  0.000944   -0.28     18.59   
    84. A(H   5,O   9,H  11)          161.03 -0.010220    2.32    163.34   
    85. A(H   5,O   9,H  10)           61.84  0.002023   -0.30     61.54   
    86. A(H  10,O   9,H  11)          123.42 -0.000341    0.06    123.48   
    87. A(H   5,H  10,O   9)           99.80 -0.001826    0.92    100.72   
    88. A(O   6,O  12,H  14)           73.50  0.000517    0.07     73.57   
    89. A(O   6,O  12,H  13)          123.71 -0.000738   -0.02    123.69   
    90. A(H  13,O  12,H  14)          124.59  0.001052   -0.11    124.48   
    91. A(H  16,O  15,H  17)          129.77 -0.000541    0.31    130.08   
    92. A(O   3,H  16,H   4)           25.56 -0.000398    0.06     25.62   
    93. A(H   4,H  16,O  15)          125.13 -0.001614    0.74    125.86   
    94. A(O   3,H  16,O  15)          146.15 -0.001768    0.79    146.93   
    95. A(O   0,H  17,H   2)           20.93  0.000692    0.00     20.93   
    96. A(H   2,H  17,O  15)          103.19 -0.000147   -0.12    103.08   
    97. A(O   0,H  17,O  15)           83.60 -0.001040   -0.03     83.57   
    98. D(H   7,H   1,O   0,H  17)    130.96  0.000548   -0.03    130.93   
    99. D(H   4,H   1,O   0,H  17)     77.16  0.000684   -0.09     77.06   
   100. D(H   7,H   1,O   0,H   4)     53.80 -0.000136    0.06     53.87   
   101. D(H   7,H   1,O   0,H   2)   -170.83 -0.000951    0.23   -170.59   
   102. D(H   4,H   1,O   0,H   2)    135.37 -0.000816    0.17    135.54   
   103. D(H   4,H   1,O   0,H   7)    -53.80  0.000136   -0.06    -53.87   
   104. D(H  17,H   2,O   0,H   1)    -74.83  0.002030   -0.55    -75.38   
   105. D(H  17,H   2,O   0,H   4)     33.68  0.002382   -0.69     32.99   
   106. D(H  17,H   2,O   0,H   7)    149.60  0.002387   -0.64    148.96   
   107. D(O   0,H   4,O   3,H   5)    -83.92 -0.000626    0.33    -83.59   
   108. D(O   3,H   4,O   0,H  17)    -78.65 -0.000274    0.10    -78.55   
   109. D(O   3,H   4,H   1,O   0)   -167.64 -0.000860    0.38   -167.26   
   110. D(O   3,H   4,O   0,H   7)     84.99 -0.003852    1.13     86.12   
   111. D(O   3,H   4,H   1,H   7)     97.62 -0.004763    1.35     98.97   
   112. D(H   7,H   4,H   1,O   0)     94.73  0.003903   -0.97     93.77   
   113. D(H   1,H   4,O   3,H   5)    -75.25 -0.000376    0.35    -74.90   
   114. D(H   7,H   4,O   0,H   2)    166.57  0.001816   -0.44    166.13   
   115. D(H   7,H   4,O   0,H   1)    -66.20  0.003279   -0.77    -66.98   
   116. D(H   1,H   4,O   0,H   7)     66.20 -0.003279    0.77     66.98   
   117. D(H   1,H   4,O   3,H  16)     69.17  0.002371   -0.67     68.49   
   118. D(H   1,H   4,O   3,H   7)    -54.85  0.000113    0.01    -54.84   
   119. D(O   0,H   4,O   3,H   7)    -63.52 -0.000137   -0.01    -63.53   
   120. D(H   7,H   4,O   0,H  17)   -163.64  0.003577   -1.03   -164.67   
   121. D(H   1,H   4,O   0,H   2)   -127.22 -0.001463    0.33   -126.89   
   122. D(H  16,H   4,H   1,H   7)    172.12 -0.004040    1.21    173.34   
   123. D(H  16,H   4,H   1,O   0)    -93.14 -0.000138    0.24    -92.90   
   124. D(H   7,H   4,O   3,H   5)    -20.40 -0.000489    0.34    -20.06   
   125. D(H  16,H   4,O   3,H   5)   -144.42 -0.002747    1.02   -143.40   
   126. D(H  16,H   4,O   0,H   2)    -45.70 -0.000888    0.31    -45.38   
   127. D(O   0,H   4,H   1,H   7)    -94.73 -0.003903    0.97    -93.77   
   128. D(O   0,H   4,O   3,H  16)     60.50  0.002121   -0.69     59.81   
   129. D(H   1,H   4,O   0,H  17)    -97.44  0.000299   -0.25    -97.69   
   130. D(O   3,H   4,O   0,H   2)   -108.43 -0.002036    0.69   -107.75   
   131. D(H  16,H   4,O   0,H   7)    147.73 -0.002704    0.75    148.49   
   132. D(H  16,H   4,O   0,H  17)    -15.91  0.000873   -0.27    -16.18   
   133. D(H  16,H   4,O   0,H   1)     81.53  0.000574   -0.02     81.51   
   134. D(O   3,H   4,O   0,H   1)     18.79 -0.000573    0.35     19.14   
   135. D(H  16,H   4,O   3,H   7)   -124.02 -0.002258    0.69   -123.33   
   136. D(H   7,H   4,O   3,H  16)    124.02  0.002258   -0.69    123.33   
   137. D(O   9,H   5,O   3,H   4)    172.95  0.010226   -2.58    170.37   
   138. D(O   9,H   5,O   3,H   7)    159.23  0.009335   -2.23    157.00   
   139. D(O   9,H   5,O   3,H  16)     50.73  0.006769   -1.67     49.06   
   140. D(H   4,H   7,H   1,O   0)    -78.67  0.003081   -0.83    -79.50   
   141. D(O   3,H   7,H   1,H   4)    -17.26 -0.000407    0.11    -17.15   
   142. D(O   3,H   7,H   1,O   0)    -95.92  0.002675   -0.72    -96.64   
   143. D(H   4,H   7,O   0,H   2)   -124.66  0.001270   -0.38   -125.04   
   144. D(O   6,H   7,H   1,O   0)    167.61  0.002285   -0.60    167.01   
   145. D(H   4,H   7,O   0,H  17)     20.69  0.004539   -1.25     19.43   
   146. D(H   4,H   7,O   0,H   1)     95.12  0.001815   -0.52     94.61   
   147. D(O   3,H   7,O   0,H  17)      9.27  0.004932   -1.38      7.89   
   148. D(O   3,H   7,O   0,H   4)    -11.42  0.000392   -0.12    -11.54   
   149. D(O   6,H   7,H   1,H   4)   -113.72 -0.000796    0.23   -113.49   
   150. D(O   3,H   7,O   0,H   2)   -136.08  0.001662   -0.50   -136.58   
   151. D(O   0,H   7,H   1,H   4)     78.67 -0.003081    0.83     79.50   
   152. D(O   3,H   7,O   0,H   1)     83.71  0.002207   -0.64     83.07   
   153. D(H   1,H   7,O   0,H  17)    -74.44  0.002725   -0.74    -75.17   
   154. D(H   1,H   7,O   0,H   4)    -95.12 -0.001815    0.52    -94.61   
   155. D(H   4,H   7,O   6,O  12)    -65.21 -0.002458    0.81    -64.40   
   156. D(O   3,H   7,O   6,O  12)    -60.45 -0.002896    0.88    -59.57   
   157. D(O   6,H   7,O   0,H  17)    -98.67  0.005785   -1.43   -100.10   
   158. D(O   6,H   7,O   3,H   4)   -166.54 -0.002091    0.46   -166.08   
   159. D(O   6,H   7,O   0,H   4)   -119.36  0.001246   -0.18   -119.53   
   160. D(H   1,H   7,O   6,H   8)    -47.54  0.001601   -0.43    -47.98   
   161. D(O   0,H   7,O   6,O  12)     46.34 -0.004048    0.97     47.32   
   162. D(O   6,H   7,O   0,H   2)    115.98  0.002516   -0.55    115.43   
   163. D(O   6,H   7,O   0,H   1)    -24.23  0.003061   -0.69    -24.93   
   164. D(O   3,H   7,H   4,H   1)    113.61  0.003352   -1.08    112.53   
   165. D(O   3,H   7,H   4,O   0)    142.28  0.003622   -1.11    141.18   
   166. D(H   1,H   7,H   4,H  16)     -8.92 -0.005003    1.51     -7.42   
   167. D(H   1,H   7,H   4,O   0)     28.67  0.000270   -0.02     28.65   
   168. D(H   1,H   7,H   4,O   3)   -113.61 -0.003352    1.08   -112.53   
   169. D(O   0,H   7,H   4,H  16)    -37.59 -0.005273    1.53    -36.06   
   170. D(O   0,H   7,H   4,O   3)   -142.28 -0.003622    1.11   -141.18   
   171. D(O   6,H   7,H   4,H  16)    119.45 -0.003780    0.89    120.33   
   172. D(O   6,H   7,H   4,H   1)    128.37  0.001223   -0.62    127.75   
   173. D(O   6,H   7,H   4,O   0)    157.04  0.001493   -0.64    156.40   
   174. D(O   6,H   7,H   4,O   3)     14.76 -0.002129    0.46     15.22   
   175. D(O   0,H   7,H   4,H   1)    -28.67 -0.000270    0.02    -28.65   
   176. D(H   4,H   7,O   3,H  16)    -50.37  0.000846   -0.28    -50.66   
   177. D(H   4,H   7,O   3,H   5)    166.93 -0.000446    0.35    167.28   
   178. D(H   1,H   7,O   3,H  16)     14.12 -0.002873    0.88     15.00   
   179. D(H   1,H   7,O   3,H   5)   -128.57 -0.004164    1.51   -127.06   
   180. D(H   1,H   7,O   3,H   4)     64.50 -0.003718    1.16     65.66   
   181. D(O   0,H   7,O   3,H  16)    -14.02 -0.003189    0.92    -13.10   
   182. D(O   3,H   7,H   4,H  16)    104.69 -0.001651    0.42    105.11   
   183. D(O   0,H   7,O   6,H   8)    -33.05  0.000271   -0.18    -33.23   
   184. D(O   0,H   7,O   3,H   5)   -156.71 -0.004480    1.55   -155.16   
   185. D(O   0,H   7,O   3,H   4)     36.36 -0.004034    1.20     37.56   
   186. D(H   1,H   7,O   6,O  12)     31.85 -0.002718    0.72     32.57   
   187. D(O   3,H   7,O   6,H   8)   -139.84  0.001423   -0.26   -140.11   
   188. D(O   6,H   7,O   3,H  16)    143.09 -0.001245    0.18    143.26   
   189. D(H   4,H   7,O   6,H   8)   -144.60  0.001861   -0.34   -144.94   
   190. D(O   6,H   7,O   3,H   5)      0.39 -0.002537    0.81      1.20   
   191. D(H   1,H   7,O   0,H   2)    140.21 -0.000545    0.14    140.36   
   192. D(H  11,O   9,H   5,H  10)   -111.38  0.000935   -0.65   -112.03   
   193. D(H  11,O   9,H   5,O   3)     68.65 -0.000505    0.53     69.18   
   194. D(H  10,O   9,H   5,O   3)   -179.97 -0.001440    1.18   -178.79   
   195. D(H   5,H  10,O   9,H  11)    158.73 -0.011625    2.69    161.42   
   196. D(O   9,H  10,O   3,H  16)     40.57  0.000364   -0.39     40.18   
   197. D(O   9,H  10,O   3,H   7)    157.77  0.008159   -1.68    156.09   
   198. D(O   9,H  10,O   3,H   4)    169.70  0.012216   -3.68    166.02   
   199. D(H  14,O  12,O   6,H   8)    -99.59  0.002721   -0.84   -100.44   
   200. D(H  14,O  12,O   6,H   7)    144.21 -0.000339   -0.19    144.02   
   201. D(H  13,O  12,O   6,H   8)    139.46  0.001185   -0.76    138.70   
   202. D(H  13,O  12,O   6,H   7)     23.27 -0.001875   -0.11     23.16   
   203. D(O   3,H  16,O  15,H  17)     94.79 -0.000002   -0.11     94.69   
   204. D(O   3,H  16,H   4,H   7)   -122.04  0.003968   -1.03   -123.07   
   205. D(O   3,H  16,H   4,H   1)   -128.68  0.000185    0.11   -128.57   
   206. D(O   3,H  16,H   4,O   0)   -151.42 -0.000928    0.34   -151.08   
   207. D(O  15,H  16,H   4,H   7)     29.91  0.004044   -0.84     29.07   
   208. D(O  15,H  16,H   4,H   1)     23.27  0.000261    0.30     23.56   
   209. D(O  15,H  16,H   4,O   0)      0.53 -0.000852    0.53      1.06   
   210. D(O  15,H  16,H   4,O   3)    151.95  0.000076    0.19    152.14   
   211. D(H   4,H  16,O   3,H   7)     33.87  0.001130   -0.22     33.65   
   212. D(H   4,H  16,O   3,H   5)    144.30  0.001094    0.02    144.32   
   213. D(O  15,H  16,O   3,H   7)     -9.79  0.002699   -0.51    -10.30   
   214. D(O  15,H  16,O   3,H   5)    100.64  0.002663   -0.26    100.37   
   215. D(H   4,H  16,O  15,H  17)     73.44  0.001410   -0.49     72.95   
   216. D(O  15,H  16,O   3,H   4)    -43.66  0.001569   -0.29    -43.95   
   217. D(H   2,H  17,O   0,H   4)   -155.75  0.001944   -0.58   -156.32   
   218. D(H   2,H  17,O   0,H   7)   -172.37 -0.001604    0.41   -171.96   
   219. D(H   2,H  17,O   0,H   1)    127.19  0.002148   -0.50    126.69   
   220. D(O  15,H  17,O   0,H   4)     44.86  0.000089    0.02     44.89   
   221. D(O  15,H  17,O   0,H   7)     28.24 -0.003459    1.01     29.25   
   222. D(O  15,H  17,O   0,H   2)   -159.39 -0.001855    0.60   -158.79   
   223. D(O  15,H  17,H   2,O   0)     21.06 -0.001958    0.61     21.67   
   224. D(O  15,H  17,O   0,H   1)    -32.20  0.000292    0.10    -32.10   
   225. D(H   2,H  17,O  15,H  16)    -88.92  0.001420   -0.34    -89.27   
   226. D(O   0,H  17,O  15,H  16)    -81.50  0.001008   -0.12    -81.62   
    ----------------------------------------------------------------------------




    ----------------------------------------------------------------------------
                                   ERROR !!!
       The optimization did not converge but reached the maximum 
       number of optimization cycles.
       As a subsequent Frequencies calculation has been requested
       ORCA will abort at this point of the run.
       Please restart the calculation with the lowest energy geometry and/or
       a larger maxiter for the geometry optimization.
    ----------------------------------------------------------------------------


[file orca_main/run.cpp, line 10680]: ORCA finished with error return - aborting the run
[file orca_main/run.cpp, line 10680]: ORCA finished with error return - aborting the run
