
                                 *****************
                                 * O   R   C   A *
                                 *****************

           --- An Ab Initio, DFT and Semiempirical electronic structure package ---

                  #######################################################
                  #                        -***-                        #
                  #          Department of theory and spectroscopy      #
                  #               Directorship: Frank Neese             #
                  #        Max Planck Institute fuer Kohlenforschung    #
                  #                Kaiser Wilhelm Platz 1               #
                  #                 D-45470 Muelheim/Ruhr               #
                  #                      Germany                        #
                  #                                                     #
                  #                  All rights reserved                #
                  #                        -***-                        #
                  #######################################################


                         Program Version 4.2.0 -  RELEASE  -


 With contributions from (in alphabetic order):
   Daniel Aravena         : Magnetic Suceptibility
   Michael Atanasov       : Ab Initio Ligand Field Theory (pilot matlab implementation)
   Alexander A. Auer      : GIAO ZORA, VPT2
   Ute Becker             : Parallelization
   Giovanni Bistoni       : ED, misc. LED, open-shell LED, HFLED
   Martin Brehm           : Molecular dynamics
   Dmytro Bykov           : SCF Hessian
   Vijay G. Chilkuri      : MRCI spin determinant printing, contributions to CSF-ICE
   Dipayan Datta          : RHF DLPNO-CCSD density
   Achintya Kumar Dutta   : EOM-CC, STEOM-CC
   Dmitry Ganyushin       : Spin-Orbit,Spin-Spin,Magnetic field MRCI
   Miquel Garcia          : C-PCM Hessian, Gaussian charge scheme
   Yang Guo               : DLPNO-NEVPT2, CIM, IAO-localization
   Andreas Hansen         : Spin unrestricted coupled pair/coupled cluster methods
   Benjamin Helmich-Paris : CASSCF linear response (MC-RPA)
   Lee Huntington         : MR-EOM, pCC
   Robert Izsak           : Overlap fitted RIJCOSX, COSX-SCS-MP3, EOM
   Christian Kollmar      : KDIIS, OOCD, Brueckner-CCSD(T), CCSD density
   Simone Kossmann        : Meta GGA functionals, TD-DFT gradient, OOMP2, MP2 Hessian
   Martin Krupicka        : AUTO-CI
   Lucas Lang             : DCDCAS
   Dagmar Lenk            : GEPOL surface, SMD
   Dimitrios Liakos       : Extrapolation schemes; Compound Job, initial MDCI parallelization
   Dimitrios Manganas     : Further ROCIS development; embedding schemes
   Dimitrios Pantazis     : SARC Basis sets
   Taras Petrenko         : DFT Hessian,TD-DFT gradient, ASA, ECA, R-Raman, ABS, FL, XAS/XES, NRVS
   Peter Pinski           : DLPNO-MP2, DLPNO-MP2 Gradient
   Christoph Reimann      : Effective Core Potentials
   Marius Retegan         : Local ZFS, SOC
   Christoph Riplinger    : Optimizer, TS searches, QM/MM, DLPNO-CCSD(T), (RO)-DLPNO pert. Triples
   Tobias Risthaus        : Range-separated hybrids, TD-DFT gradient, RPA, STAB
   Michael Roemelt        : Original ROCIS implementation
   Masaaki Saitow         : Open-shell DLPNO-CCSD energy and density
   Barbara Sandhoefer     : DKH picture change effects
   Avijit Sen             : IP-ROCIS
   Kantharuban Sivalingam : CASSCF convergence, NEVPT2, FIC-MRCI
   Bernardo de Souza      : ESD, SOC TD-DFT
   Georgi Stoychev        : AutoAux, RI-MP2 NMR
   Willem Van den Heuvel  : Paramagnetic NMR
   Boris Wezisla          : Elementary symmetry handling
   Frank Wennmohs         : Technical directorship


 We gratefully acknowledge several colleagues who have allowed us to
 interface, adapt or use parts of their codes:
   Stefan Grimme, W. Hujo, H. Kruse,             : VdW corrections, initial TS optimization,
                  C. Bannwarth                     DFT functionals, gCP, sTDA/sTD-DF
   Ed Valeev, F. Pavosevic, A. Kumar             : LibInt (2-el integral package), F12 methods
   Garnet Chan, S. Sharma, J. Yang, R. Olivares  : DMRG
   Ulf Ekstrom                                   : XCFun DFT Library
   Mihaly Kallay                                 : mrcc  (arbitrary order and MRCC methods)
   Andreas Klamt, Michael Diedenhofen            : otool_cosmo (COSMO solvation model)
   Jiri Pittner, Ondrej Demel                    : Mk-CCSD
   Frank Weinhold                                : gennbo (NPA and NBO analysis)
   Christopher J. Cramer and Donald G. Truhlar   : smd solvation model
   Lars Goerigk                                  : TD-DFT with DH, B97 family of functionals
   V. Asgeirsson, H. Jonsson                     : NEB implementation
   FAccTs GmbH                                   : IRC, NEB, NEB-TS, Multilevel, MM, QM/MM, CI optimization
   S Lehtola, MJT Oliveira, MAL Marques          : LibXC Library


 Your calculation uses the libint2 library for the computation of 2-el integrals
 For citations please refer to: http://libint.valeyev.net

 Your ORCA version has been built with support for libXC version: 4.2.3
 For citations please refer to: https://tddft.org/programs/libxc/

 This ORCA versions uses:
   CBLAS   interface :  Fast vector & matrix operations
   LAPACKE interface :  Fast linear algebra routines
   SCALAPACK package :  Parallel linear algebra routines


Your calculation utilizes the atom-pairwise dispersion correction
with the Becke-Johnson damping scheme (D3BJ)
Cite in your paper:
S.Grimme, S.Ehrlich, L.Goerigk, J Comput Chem, (2011), 32, 1456–1465 
S.Grimme, J.Antony, S.Ehrlich and H.Krieg, J.Chem.Phys., 132, (2010), 154104 
   

----- Orbital basis set information -----
Your calculation utilizes the basis: aug-cc-pV(T+d)Z 
             Al - Ar: T.H. Dunning, Jr., K. A. Peterson and A. K. Wilson, J. Chem. Phys.
                      114, 9244 (2001)

----- AuxJ basis set information -----
Your calculation utilizes the auxiliary basis: def2/J
   F. Weigend, Phys. Chem. Chem. Phys. 8, 1057 (2006).

================================================================================
                                        WARNINGS
                       Please study these warnings very carefully!
================================================================================


WARNING: Geometry Optimization
  ===> : Switching off AutoStart
         For restart on a previous wavefunction, please use MOREAD

WARNING: The SCAN functional is very grid-sensitive!
         Use at least GRID5 and a higher intacc

INFO   : the flag for use of LIBINT has been found!

================================================================================
                                       INPUT FILE
================================================================================
NAME = 08_H2O_6_cage.in
|  1> #
|  2> # 08_H2O_6_cage scanfunc/aug-cc-pvt(+d)z
|  3> #
|  4> ! scanfunc d3bj aug-cc-pvt(+d)z def2/j grid4 nofinalgrid opt xyzfile numfreq
|  5> 
|  6> *xyz 0 1
|  7> O	0.862065	-1.728538	-0.448765
|  8> H	1.679686	-1.216793	-0.290371
|  9> H	1.141594	-2.607406	-0.70991
| 10> O	-0.751083	0.359939	-1.648316
| 11> H	-0.283702	-0.473988	-1.502279
| 12> H	-1.624922	0.21572	-1.247934
| 13> O	0.590537	1.75631	0.198185
| 14> H	0.069166	1.374794	-0.548651
| 15> H	0.493944	2.707937	0.134574
| 16> O	-0.675492	-0.446436	1.665684
| 17> H	-0.188802	-1.063799	1.102054
| 18> H	-0.260662	0.405216	1.474464
| 19> O	2.803582	0.112403	0.084677
| 20> H	2.165098	0.844551	0.158067
| 21> H	3.282044	0.106258	0.915526
| 22> O	-2.901034	0.010949	0.089937
| 23> H	-2.258917	-0.224605	0.785219
| 24> H	-3.643112	-0.584893	0.198028
| 25> *
| 26> 
| 27> %maxcore 5000
| 28> 
| 29> %pal
| 30> nprocs 24
| 31> end
| 32> 
| 33> 
| 34>                          ****END OF INPUT****
================================================================================

                       *****************************
                       * Geometry Optimization Run *
                       *****************************

Geometry optimization settings:
Update method            Update   .... BFGS
Choice of coordinates    CoordSys .... Z-matrix Internals
Initial Hessian          InHess   .... Almoef's Model

Convergence Tolerances:
Energy Change            TolE     ....  5.0000e-06 Eh
Max. Gradient            TolMAXG  ....  3.0000e-04 Eh/bohr
RMS Gradient             TolRMSG  ....  1.0000e-04 Eh/bohr
Max. Displacement        TolMAXD  ....  4.0000e-03 bohr
RMS Displacement         TolRMSD  ....  2.0000e-03 bohr
Strict Convergence                ....  False
------------------------------------------------------------------------------
                        ORCA OPTIMIZATION COORDINATE SETUP
------------------------------------------------------------------------------

The optimization will be done in new redundant internal coordinates
Making redundant internal coordinates   ...  (new redundants) done
Evaluating the initial hessian          ...  (Almloef) done
Evaluating the coordinates              ...  done
Calculating the B-matrix                .... done
Calculating the G-matrix                .... done
Diagonalizing the G-matrix              .... done
The first mode is                       ....  268
The number of degrees of freedom        ....   48

    -----------------------------------------------------------------
                    Redundant Internal Coordinates


    -----------------------------------------------------------------
         Definition                    Initial Value    Approx d2E/dq
    -----------------------------------------------------------------
      1. B(H   1,O   0)                  0.9775         0.487609   
      2. B(H   2,O   0)                  0.9585         0.522809   
      3. B(H   4,O   3)                  0.9671         0.506643   
      4. B(H   4,O   0)                  1.9991         0.011431   
      5. B(H   5,O   3)                  0.9720         0.497612   
      6. B(H   7,H   4)                  2.1100         0.001626   
      7. B(H   7,O   3)                  1.7065         0.033500   
      8. B(H   7,O   6)                  0.9875         0.470003   
      9. B(H   7,H   5)                  2.1685         0.001312   
     10. B(H   8,O   6)                  0.9586         0.522581   
     11. B(H  10,O   0)                  1.9878         0.011918   
     12. B(H  10,H   1)                  2.3353         0.000711   
     13. B(H  10,O   9)                  0.9673         0.506184   
     14. B(H  11,H   7)                  2.2676         0.000911   
     15. B(H  11,O   6)                  2.0442         0.009686   
     16. B(H  11,O   9)                  0.9664         0.507844   
     17. B(O  12,H   1)                  1.7806         0.025512   
     18. B(H  13,O   6)                  1.8199         0.022080   
     19. B(H  13,H   1)                  2.1647         0.001330   
     20. B(H  13,O  12)                  0.9742         0.493506   
     21. B(H  13,H   7)                  2.2745         0.000888   
     22. B(H  14,O  12)                  0.9588         0.522277   
     23. B(O  15,H   5)                  1.8602         0.019045   
     24. B(H  16,H  11)                  2.2056         0.001144   
     25. B(H  16,H  10)                  2.2561         0.000951   
     26. B(H  16,O   9)                  1.8253         0.021650   
     27. B(H  16,H   5)                  2.1748         0.001282   
     28. B(H  16,O  15)                  0.9753         0.491531   
     29. B(H  17,O  15)                  0.9578         0.524165   
     30. A(H   4,O   0,H  10)           84.1622         0.130751   
     31. A(H   2,O   0,H   4)          126.7959         0.187252   
     32. A(H   1,O   0,H  10)           98.0887         0.186633   
     33. A(H   1,O   0,H   4)          103.6653         0.185714   
     34. A(H   2,O   0,H  10)          132.3270         0.188186   
     35. A(H   1,O   0,H   2)          106.2749         0.318758   
     36. A(H  10,H   1,O  12)          109.3008         0.110399   
     37. A(O  12,H   1,H  13)           26.3603         0.113660   
     38. A(O   0,H   1,H  10)           57.4292         0.130727   
     39. A(O   0,H   1,H  13)          136.0277         0.137086   
     40. A(O   0,H   1,O  12)          162.3447         0.204986   
     41. A(H  10,H   1,H  13)           89.6282         0.097872   
     42. A(H   5,O   3,H   7)          104.7699         0.212930   
     43. A(H   4,O   3,H   5)          104.1436         0.318181   
     44. A(H   4,O   3,H   7)          100.5572         0.213436   
     45. A(O   3,H   4,H   7)           52.6623         0.139762   
     46. A(O   0,H   4,O   3)          153.8607         0.186556   
     47. A(O   0,H   4,H   7)          102.4647         0.110520   
     48. A(O  15,H   5,H  16)           26.5348         0.111889   
     49. A(H   7,H   5,H  16)           91.9766         0.099106   
     50. A(O   3,H   5,O  15)          158.3358         0.198060   
     51. A(O   3,H   5,H  16)          132.6293         0.136904   
     52. A(H   7,H   5,O  15)          111.2749         0.112008   
     53. A(O   3,H   5,H   7)           49.5462         0.137154   
     54. A(H   8,O   6,H  13)          125.6646         0.203028   
     55. A(H   7,O   6,H   8)          106.2686         0.316831   
     56. A(H   8,O   6,H  11)          130.9632         0.183628   
     57. A(H   7,O   6,H  11)           89.8273         0.181383   
     58. A(H  11,O   6,H  13)           92.4586         0.135238   
     59. A(H   7,O   6,H  13)          104.2743         0.200324   
     60. A(O   3,H   7,H  11)          104.5211         0.113078   
     61. A(H   4,H   7,H  13)           95.1792         0.098766   
     62. A(O   3,H   7,H   4)           26.7805         0.116450   
     63. A(H   4,H   7,O   6)          140.2320         0.138907   
     64. A(H   5,H   7,H  13)          134.0648         0.098302   
     65. A(O   3,H   7,H  13)          120.2990         0.112939   
     66. A(O   3,H   7,O   6)          166.1473         0.211339   
     67. A(H   4,H   7,H   5)           41.8630         0.099666   
     68. A(O   6,H   7,H  13)           50.8439         0.132524   
     69. A(O   6,H   7,H  11)           64.3565         0.132777   
     70. A(O   3,H   7,H   5)           25.6839         0.115146   
     71. A(H  11,H   7,H  13)           75.9447         0.097566   
     72. A(H   4,H   7,H  11)           90.2440         0.098822   
     73. A(H   5,H   7,O   6)          149.6388         0.136536   
     74. A(H   5,H   7,H  11)           86.8776         0.098356   
     75. A(H  10,O   9,H  11)          103.3663         0.319192   
     76. A(H  11,O   9,H  16)           99.7776         0.201790   
     77. A(H  10,O   9,H  16)          103.4719         0.201706   
     78. A(O   0,H  10,H   1)           24.4821         0.107013   
     79. A(H   1,H  10,O   9)          142.3549         0.131081   
     80. A(O   0,H  10,O   9)          159.0703         0.187463   
     81. A(O   0,H  10,H  16)          119.9940         0.108239   
     82. A(O   9,H  10,H  16)           51.8857         0.133945   
     83. A(H   1,H  10,H  16)          132.4378         0.097222   
     84. A(H   7,H  11,O   9)          128.0085         0.133551   
     85. A(O   6,H  11,O   9)          152.2159         0.183017   
     86. A(O   9,H  11,H  16)           54.6408         0.135906   
     87. A(O   6,H  11,H  16)          111.7695         0.108144   
     88. A(H   7,H  11,H  16)           88.5715         0.098071   
     89. A(O   6,H  11,H   7)           25.8161         0.107182   
     90. A(H  13,O  12,H  14)          105.4616         0.319331   
     91. A(H   1,O  12,H  14)          119.5194         0.206803   
     92. A(H   1,O  12,H  13)           99.3928         0.205302   
     93. A(O   6,H  13,O  12)          160.9419         0.201561   
     94. A(H   1,H  13,O  12)           54.2470         0.137217   
     95. A(O   6,H  13,H   7)           24.8818         0.110784   
     96. A(H   1,H  13,H   7)           87.1910         0.098331   
     97. A(H   7,H  13,O  12)          139.0876         0.133007   
     98. A(H   1,H  13,O   6)          106.7159         0.112867   
     99. A(H  16,O  15,H  17)          106.2239         0.319310   
    100. A(H   5,O  15,H  17)          132.9334         0.199351   
    101. A(H   5,O  15,H  16)           95.0284         0.197757   
    102. A(H   5,H  16,O  15)           58.4368         0.136771   
    103. A(H  10,H  16,H  11)           39.7390         0.098158   
    104. A(O   9,H  16,H  11)           25.5816         0.111966   
    105. A(H   5,H  16,H  11)           88.2932         0.098799   
    106. A(H  11,H  16,O  15)          138.6152         0.135561   
    107. A(O   9,H  16,H  10)           24.6424         0.111022   
    108. A(H   5,H  16,H  10)           86.5092         0.098396   
    109. A(H  10,H  16,O  15)          142.5658         0.133647   
    110. A(H   5,H  16,O   9)          102.8661         0.112563   
    111. A(O   9,H  16,O  15)          160.7985         0.200959   
    112. D(H  13,H   1,O   0,H   4)     38.2361         0.382600   
    113. D(H  10,H   1,O   0,H   2)   -138.5912         0.382600   
    114. D(H  13,H   1,O   0,H   2)    173.7263         0.382600   
    115. D(O  12,H   1,O   0,H  10)    -44.4494         0.382600   
    116. D(O  12,H   1,O   0,H   4)     41.4693         0.382600   
    117. D(O  12,H   1,O   0,H   2)    176.9594         0.382600   
    118. D(H  10,H   1,O   0,H   4)     85.9186         0.382600   
    119. D(H  13,H   1,O   0,H  10)    -47.6825         0.382600   
    120. D(O   0,H   4,O   3,H   5)    -88.0836         0.358633   
    121. D(H   7,H   4,O   0,H   1)    -40.3714         0.001582   
    122. D(H   7,H   4,O   3,H   5)   -108.3245         0.358633   
    123. D(O   0,H   4,O   3,H   7)     20.2409         0.358633   
    124. D(O   3,H   4,O   0,H  10)     40.1989         0.001582   
    125. D(H   7,H   4,O   0,H   2)   -163.1930         0.001582   
    126. D(O   3,H   4,O   0,H   1)    -56.7337         0.001582   
    127. D(O   3,H   4,O   0,H   2)   -179.5553         0.001582   
    128. D(H   7,H   4,O   0,H  10)     56.5612         0.001582   
    129. D(H   7,H   5,O   3,H   4)    105.1792         0.373690   
    130. D(H  16,H   5,O   3,H   4)     61.5053         0.373690   
    131. D(O  15,H   5,O   3,H   4)     73.9324         0.373690   
    132. D(H  16,H   5,O   3,H   7)    -43.6739         0.373690   
    133. D(O  15,H   5,O   3,H   7)    -31.2469         0.373690   
    134. D(H   4,H   7,O   6,H  13)     37.2047         0.395198   
    135. D(H   4,H   7,O   3,H   5)    107.8298         0.002365   
    136. D(H  13,H   7,O   6,H  11)    -92.4930         0.395198   
    137. D(O   3,H   7,H   5,H  16)    149.4441         0.001523   
    138. D(O   3,H   7,O   6,H   8)   -171.2792         0.395198   
    139. D(O   3,H   7,O   6,H  11)    -38.2757         0.395198   
    140. D(H  11,H   7,O   3,H   5)     48.0566         0.002365   
    141. D(H   5,H   7,O   6,H   8)   -112.8945         0.395198   
    142. D(H  13,H   7,O   3,H   4)     22.2244         0.002365   
    143. D(H  11,H   7,H   5,O  15)     34.2878         0.001523   
    144. D(H  11,H   7,H   5,O   3)   -133.8533         0.001523   
    145. D(H   4,H   7,H   5,O   3)    -39.9963         0.001523   
    146. D(H   4,H   7,H   5,O  15)    128.1449         0.001523   
    147. D(O   6,H   7,O   3,H   5)     83.2867         0.002365   
    148. D(H  13,H   7,H   5,H  16)     82.5564         0.001523   
    149. D(H  13,H   7,O   3,H   5)    130.0542         0.002365   
    150. D(O   6,H   7,O   3,H   4)    -24.5431         0.002365   
    151. D(H  11,H   7,H   5,H  16)     15.5908         0.001523   
    152. D(O   6,H   7,H   5,O   3)   -151.9370         0.001523   
    153. D(H  11,H   7,H   4,O   0)    -47.7862         0.001533   
    154. D(H  13,H   7,H   4,O   3)   -160.8581         0.001533   
    155. D(H  13,H   7,O   6,H   8)    134.5035         0.395198   
    156. D(O   3,H   7,H   5,O  15)    168.1412         0.001523   
    157. D(H  13,H   7,H   5,O  15)    101.2535         0.001523   
    158. D(H  13,H   7,H   4,O   0)     28.1223         0.001533   
    159. D(H   5,H   7,H   4,O   3)     38.1884         0.001533   
    160. D(H   5,H   7,H   4,O   0)   -132.8312         0.001533   
    161. D(H   4,H   7,H   5,H  16)    109.4479         0.001523   
    162. D(H  11,H   7,H   4,O   3)    123.2333         0.001533   
    163. D(O   6,H   7,H   5,H  16)     -2.4928         0.001523   
    164. D(O   3,H   7,O   6,H  13)     54.2173         0.395198   
    165. D(O   6,H   7,H   5,O  15)     16.2042         0.001523   
    166. D(H  11,H   7,O   6,H  13)     92.4930         0.395198   
    167. D(H   5,H   7,O   3,H   4)   -107.8298         0.002365   
    168. D(H  11,H   7,O   3,H   4)    -59.7732         0.002365   
    169. D(H   4,H   7,O   6,H   8)    171.7082         0.395198   
    170. D(H  11,H   7,O   6,H   8)   -133.0035         0.395198   
    171. D(H   4,H   7,O   6,H  11)    -55.2883         0.395198   
    172. D(H   5,H   7,O   6,H  13)    112.6020         0.395198   
    173. D(O   6,H   7,H   4,O   3)    171.0558         0.001533   
    174. D(O   6,H   7,H   4,O   0)      0.0363         0.001533   
    175. D(H   5,H   7,O   6,H  11)     20.1090         0.395198   
    176. D(H  13,H   7,H   5,O   3)    -66.8877         0.001523   
    177. D(O   3,H   7,H   4,O   0)   -171.0195         0.001533   
    178. D(H   1,H  10,O   9,H  16)    112.7795         0.390518   
    179. D(H   1,H  10,O   9,H  11)      9.1046         0.390518   
    180. D(O   0,H  10,O   9,H  16)     74.1849         0.390518   
    181. D(O   0,H  10,O   9,H  11)    -29.4900         0.390518   
    182. D(H  16,H  10,H   1,H  13)     81.0366         0.001506   
    183. D(H  16,H  10,H   1,O  12)     98.9224         0.001506   
    184. D(H  16,H  10,H   1,O   0)    -68.0727         0.001506   
    185. D(O   0,H  10,H   1,H  13)    149.1093         0.001506   
    186. D(O   0,H  10,H   1,O  12)    166.9951         0.001506   
    187. D(O   9,H  10,H   1,O  12)     19.5238         0.001506   
    188. D(H  16,H  10,O   0,H   1)    127.7691         0.001597   
    189. D(H   1,H  10,O   0,H   4)   -103.0227         0.001597   
    190. D(H   1,H  10,O   0,H   2)    120.8181         0.001597   
    191. D(H  16,H  10,O   0,H   2)   -111.4129         0.001597   
    192. D(O   9,H  10,O   0,H   4)    -36.1869         0.001597   
    193. D(H  16,H  10,O   0,H   4)     24.7463         0.001597   
    194. D(O   9,H  10,O   0,H   2)   -172.3461         0.001597   
    195. D(O   9,H  10,O   0,H   1)     66.8358         0.001597   
    196. D(O   9,H  10,H   1,H  13)      1.6380         0.001506   
    197. D(H  16,H  10,O   9,H  11)   -103.6749         0.390518   
    198. D(O   9,H  10,H   1,O   0)   -147.4713         0.001506   
    199. D(H  16,H  11,O   9,H  10)    106.4949         0.393833   
    200. D(H   7,H  11,O   9,H  16)    -53.6042         0.393833   
    201. D(H   7,H  11,O   9,H  10)     52.8907         0.393833   
    202. D(O   6,H  11,O   9,H  10)     38.2838         0.393833   
    203. D(H  16,H  11,H   7,H   5)    -15.3627         0.001511   
    204. D(H  16,H  11,H   7,H   4)    -57.1100         0.001511   
    205. D(H  16,H  11,H   7,H  13)   -152.3883         0.001511   
    206. D(H  16,H  11,H   7,O   6)    154.6147         0.001511   
    207. D(O   6,H  11,H   7,H   5)   -169.9775         0.001511   
    208. D(O   6,H  11,H   7,H   4)    148.2752         0.001511   
    209. D(O   9,H  11,H   7,H   5)     25.6832         0.001511   
    210. D(O   9,H  11,H   7,H  13)   -111.3424         0.001511   
    211. D(O   9,H  11,H   7,O   6)   -164.3394         0.001511   
    212. D(H   7,H  11,O   6,H  13)   -104.2801         0.001564   
    213. D(H   7,H  11,O   6,H   8)    111.6151         0.001564   
    214. D(O   9,H  11,O   6,H  13)    -77.1329         0.001564   
    215. D(H  16,H  11,O   6,H   7)    -27.4827         0.001564   
    216. D(O   9,H  11,O   6,H   8)    138.7622         0.001564   
    217. D(H  16,H  11,H   7,O   3)    -34.1980         0.001511   
    218. D(O   9,H  11,O   6,H   7)     27.1472         0.001564   
    219. D(H  16,H  11,O   6,H   8)     84.1324         0.001564   
    220. D(O   9,H  11,H   7,O   3)      6.8478         0.001511   
    221. D(O   6,H  11,O   9,H  16)    -68.2111         0.393833   
    222. D(O   9,H  11,H   7,H   4)    -16.0642         0.001511   
    223. D(O   6,H  11,H   7,O   3)    171.1872         0.001511   
    224. D(O   6,H  11,H   7,H  13)     52.9970         0.001511   
    225. D(H  16,H  11,O   6,H  13)   -131.7628         0.001564   
    226. D(H  14,O  12,H   1,H  10)     70.0774         0.001924   
    227. D(H  14,O  12,H   1,H  13)    113.8402         0.001924   
    228. D(H  14,O  12,H   1,O   0)    108.7807         0.001924   
    229. D(H  13,O  12,H   1,H  10)    -43.7628         0.001924   
    230. D(H  13,O  12,H   1,O   0)     -5.0596         0.001924   
    231. D(H   7,H  13,H   1,O  12)    165.3865         0.001521   
    232. D(H   7,H  13,H   1,O   0)    -16.8213         0.001521   
    233. D(O   6,H  13,H   1,H  10)    -39.7498         0.001521   
    234. D(O   6,H  13,H   1,O  12)   -178.9957         0.001521   
    235. D(O   6,H  13,H   1,O   0)     -1.2035         0.001521   
    236. D(O  12,H  13,H   1,H  10)    139.2459         0.001521   
    237. D(H   7,H  13,H   1,H  10)    -55.3676         0.001521   
    238. D(O  12,H  13,H   1,O   0)    177.7922         0.001521   
    239. D(H   7,H  13,O  12,H   1)    -22.6300         0.365804   
    240. D(H   7,H  13,O  12,H  14)   -146.9575         0.365804   
    241. D(O   6,H  13,O  12,H   1)      2.9468         0.365804   
    242. D(H   1,H  13,O  12,H  14)   -124.3275         0.365804   
    243. D(O   6,H  13,H   7,H  11)    -68.1941         0.001511   
    244. D(O   6,H  13,H   7,H   5)   -139.5036         0.001511   
    245. D(O   6,H  13,H   7,H   4)   -157.1464         0.001511   
    246. D(O   6,H  13,H   7,O   3)   -166.9994         0.001511   
    247. D(H   1,H  13,H   7,H  11)     74.0124         0.001511   
    248. D(H   1,H  13,H   7,H   5)      2.7028         0.001511   
    249. D(H   1,H  13,H   7,H   4)    -14.9400         0.001511   
    250. D(H   1,H  13,H   7,O   3)    -24.7930         0.001511   
    251. D(H   1,H  13,H   7,O   6)    142.2064         0.001511   
    252. D(O  12,H  13,H   7,H  11)     92.2308         0.001511   
    253. D(O  12,H  13,H   7,H   5)     20.9213         0.001511   
    254. D(O  12,H  13,H   7,H   4)      3.2785         0.001511   
    255. D(O  12,H  13,H   7,O   3)     -6.5745         0.001511   
    256. D(O  12,H  13,H   7,O   6)    160.4249         0.001511   
    257. D(H   7,H  13,O   6,H  11)     90.4476         0.001839   
    258. D(H   7,H  13,O   6,H   8)   -122.5732         0.001839   
    259. D(H   1,H  13,O   6,H  11)     50.7237         0.001839   
    260. D(H   1,H  13,O   6,H   8)   -162.2971         0.001839   
    261. D(O   6,H  13,O  12,H  14)   -121.3807         0.365804   
    262. D(H   1,H  13,O   6,H   7)    -39.7239         0.001839   
    263. D(O  12,H  13,O   6,H  11)     48.2271         0.001839   
    264. D(O  12,H  13,O   6,H   8)   -164.7938         0.001839   
    265. D(O  12,H  13,O   6,H   7)    -42.2205         0.001839   
    266. D(H  17,O  15,H   5,H  16)   -117.7064         0.001732   
    267. D(H  17,O  15,H   5,H   7)   -163.5248         0.001732   
    268. D(H  17,O  15,H   5,O   3)   -138.4640         0.001732   
    269. D(H  16,O  15,H   5,H   7)    -45.8184         0.001732   
    270. D(H  16,O  15,H   5,O   3)    -20.7576         0.001732   
    271. D(H  11,H  16,O  15,H   5)     41.4049         0.390563   
    272. D(H  11,H  16,O  15,H  17)    178.9443         0.390563   
    273. D(H  10,H  16,O  15,H  17)    114.4750         0.390563   
    274. D(O   9,H  16,O  15,H   5)     14.2252         0.390563   
    275. D(O   9,H  16,O  15,H  17)    151.7646         0.390563   
    276. D(H  10,H  16,H  11,H   7)    101.8932         0.001517   
    277. D(H  10,H  16,H  11,O   6)    113.4904         0.001517   
    278. D(H  10,H  16,H  11,O   9)    -38.7296         0.001517   
    279. D(O   9,H  16,H  11,H   7)    140.6228         0.001517   
    280. D(O   9,H  16,H  11,O   6)    152.2200         0.001517   
    281. D(H   5,H  16,H  11,H   7)     15.3011         0.001517   
    282. D(H   5,H  16,H  11,O   6)     26.8983         0.001517   
    283. D(O  15,H  16,H  11,H   7)    -19.0168         0.001517   
    284. D(O  15,H  16,H  11,O   6)     -7.4196         0.001517   
    285. D(O  15,H  16,H  11,O   9)   -159.6396         0.001517   
    286. D(H  11,H  16,H  10,O   0)   -116.2340         0.001511   
    287. D(H  11,H  16,H  10,O   9)     40.3848         0.001511   
    288. D(O   9,H  16,H  10,H   1)   -130.2674         0.001511   
    289. D(O   9,H  16,H  10,O   0)   -156.6188         0.001511   
    290. D(H   5,H  16,H  10,H   1)      1.6473         0.001511   
    291. D(H   5,H  16,H  10,O   0)    -24.7041         0.001511   
    292. D(H   5,H  16,H  10,O   9)    131.9147         0.001511   
    293. D(O  15,H  16,H  10,H   1)     21.1851         0.001511   
    294. D(O  15,H  16,H  10,O   0)     -5.1663         0.001511   
    295. D(O  15,H  16,H  10,O   9)    151.4525         0.001511   
    296. D(H  11,H  16,O   9,H  10)   -106.4096         0.001826   
    297. D(H  11,H  16,H  10,H   1)    -89.8826         0.001511   
    298. D(H  10,H  16,O   9,H  11)    106.4096         0.001826   
    299. D(H   5,H  16,O   9,H  11)     56.7787         0.001826   
    300. D(H   5,H  16,O   9,H  10)    -49.6310         0.001826   
    301. D(H   5,H  16,H  11,O   9)   -125.3217         0.001517   
    302. D(O  15,H  16,O   9,H  11)     44.3765         0.001826   
    303. D(O  15,H  16,O   9,H  10)    -62.0332         0.001826   
    304. D(H  11,H  16,H   5,O  15)   -154.0594         0.001521   
    305. D(H  11,H  16,H   5,H   7)    -16.0232         0.001521   
    306. D(H  11,H  16,H   5,O   3)     15.6973         0.001521   
    307. D(H  10,H  16,H   5,O  15)    166.1975         0.001521   
    308. D(H  10,H  16,H   5,H   7)    -55.7663         0.001521   
    309. D(H   5,H  16,O  15,H  17)    137.5394         0.390563   
    310. D(H  10,H  16,H   5,O   3)    -24.0459         0.001521   
    311. D(O   9,H  16,H   5,O  15)   -175.2447         0.001521   
    312. D(O   9,H  16,H   5,H   7)    -37.2084         0.001521   
    313. D(H  10,H  16,O  15,H   5)    -23.0643         0.390563   
    314. D(O   9,H  16,H   5,O   3)     -5.4880         0.001521   
    315. D(O  15,H  16,H   5,H   7)    138.0362         0.001521   
    316. D(O  15,H  16,H   5,O   3)    169.7567         0.001521   
    -----------------------------------------------------------------

Number of atoms                         .... 18
Number of degrees of freedom            .... 316

         *************************************************************
         *                GEOMETRY OPTIMIZATION CYCLE   1            *
         *************************************************************
---------------------------------
CARTESIAN COORDINATES (ANGSTROEM)
---------------------------------
  O      0.862065   -1.728538   -0.448765
  H      1.679686   -1.216793   -0.290371
  H      1.141594   -2.607406   -0.709910
  O     -0.751083    0.359939   -1.648316
  H     -0.283702   -0.473988   -1.502279
  H     -1.624922    0.215720   -1.247934
  O      0.590537    1.756310    0.198185
  H      0.069166    1.374794   -0.548651
  H      0.493944    2.707937    0.134574
  O     -0.675492   -0.446436    1.665684
  H     -0.188802   -1.063799    1.102054
  H     -0.260662    0.405216    1.474464
  O      2.803582    0.112403    0.084677
  H      2.165098    0.844551    0.158067
  H      3.282044    0.106258    0.915526
  O     -2.901034    0.010949    0.089937
  H     -2.258917   -0.224605    0.785219
  H     -3.643112   -0.584893    0.198028

----------------------------
CARTESIAN COORDINATES (A.U.)
----------------------------
  NO LB      ZA    FRAG     MASS         X           Y           Z
   0 O     8.0000    0    15.999    1.629067   -3.266463   -0.848043
   1 H     1.0000    0     1.008    3.174147   -2.299406   -0.548722
   2 H     1.0000    0     1.008    2.157300   -4.927283   -1.341535
   3 O     8.0000    0    15.999   -1.419341    0.680186   -3.114866
   4 H     1.0000    0     1.008   -0.536119   -0.895708   -2.838896
   5 H     1.0000    0     1.008   -3.070658    0.407652   -2.358253
   6 O     8.0000    0    15.999    1.115953    3.318945    0.374515
   7 H     1.0000    0     1.008    0.130705    2.597984   -1.036800
   8 H     1.0000    0     1.008    0.933419    5.117259    0.254308
   9 O     8.0000    0    15.999   -1.276495   -0.843642    3.147687
  10 H     1.0000    0     1.008   -0.356784   -2.010289    2.082580
  11 H     1.0000    0     1.008   -0.492580    0.765747    2.786333
  12 O     8.0000    0    15.999    5.298002    0.212411    0.160016
  13 H     1.0000    0     1.008    4.091442    1.595970    0.298703
  14 H     1.0000    0     1.008    6.202164    0.200799    1.730093
  15 O     8.0000    0    15.999   -5.482160    0.020691    0.169956
  16 H     1.0000    0     1.008   -4.268734   -0.424442    1.483849
  17 H     1.0000    0     1.008   -6.884484   -1.105288    0.374219

--------------------------------
INTERNAL COORDINATES (ANGSTROEM)
--------------------------------
 O      0   0   0     0.000000000000     0.00000000     0.00000000
 H      1   0   0     0.977484375273     0.00000000     0.00000000
 H      1   2   0     0.958510372552   106.27493477     0.00000000
 O      1   2   3     2.898776509328    98.93693428   217.36379635
 H      4   1   2     0.967060518199    17.68774027   124.66962170
 H      4   1   2     0.971956513331   102.88229172   220.86105108
 O      4   1   2     2.675698439107    79.12826050   323.03614401
 H      7   4   1     0.987494905705     8.78327180   161.28394938
 H      7   4   1     0.958629497824   114.94475867   170.52118116
 O      1   2   3     2.911831320708    95.36473628   144.88244721
 H     10   1   2     0.967307090209    14.11441329   246.09798043
 H     10   1   2     0.966416135215    91.01309885    37.47709467
 O      2   1   3     1.780608106108   162.34472926   176.95939705
 H     13   2   1     0.974211786143    99.39275309   354.94041717
 H     13   2   1     0.958787623653   119.51943813   108.78066515
 O      6   4   1     1.860185961571   158.33582154    55.78272716
 H     16   6   4     0.975303536408    95.02843990   339.24242281
 H     16   6   4     0.957805361923   132.93336833   221.53603047

---------------------------
INTERNAL COORDINATES (A.U.)
---------------------------
 O      0   0   0     0.000000000000     0.00000000     0.00000000
 H      1   0   0     1.847177769452     0.00000000     0.00000000
 H      1   2   0     1.811322100646   106.27493477     0.00000000
 O      1   2   3     5.477893726075    98.93693428   217.36379635
 H      4   1   2     1.827479534324    17.68774027   124.66962170
 H      4   1   2     1.836731624276   102.88229172   220.86105108
 O      4   1   2     5.056337266874    79.12826050   323.03614401
 H      7   4   1     1.866094930425     8.78327180   161.28394938
 H      7   4   1     1.811547214787   114.94475867   170.52118116
 O      1   2   3     5.502563744312    95.36473628   144.88244721
 H     10   1   2     1.827945487896    14.11441329   246.09798043
 H     10   1   2     1.826261826959    91.01309885    37.47709467
 O      2   1   3     3.364861672384   162.34472926   176.95939705
 H     13   2   1     1.840993472249    99.39275309   354.94041717
 H     13   2   1     1.811846029297   119.51943813   108.78066515
 O      6   4   1     3.515242025534   158.33582154    55.78272716
 H     16   6   4     1.843056581255    95.02843990   339.24242281
 H     16   6   4     1.809989823636   132.93336833   221.53603047

---------------------
BASIS SET INFORMATION
---------------------
There are 2 groups of distinct atoms

 Group   1 Type O   : 19s6p3d2f contracted to 5s4p3d2f pattern {88111/3111/111/11}
 Group   2 Type H   : 6s3p2d contracted to 4s3p2d pattern {3111/111/11}

Atom   0O    basis set group =>   1
Atom   1H    basis set group =>   2
Atom   2H    basis set group =>   2
Atom   3O    basis set group =>   1
Atom   4H    basis set group =>   2
Atom   5H    basis set group =>   2
Atom   6O    basis set group =>   1
Atom   7H    basis set group =>   2
Atom   8H    basis set group =>   2
Atom   9O    basis set group =>   1
Atom  10H    basis set group =>   2
Atom  11H    basis set group =>   2
Atom  12O    basis set group =>   1
Atom  13H    basis set group =>   2
Atom  14H    basis set group =>   2
Atom  15O    basis set group =>   1
Atom  16H    basis set group =>   2
Atom  17H    basis set group =>   2
---------------------------------
AUXILIARY/J BASIS SET INFORMATION
---------------------------------
There are 2 groups of distinct atoms

 Group   1 Type O   : 12s5p4d2f1g contracted to 6s4p3d1f1g pattern {711111/2111/211/2/1}
 Group   2 Type H   : 5s2p1d contracted to 3s1p1d pattern {311/2/1}

Atom   0O    basis set group =>   1
Atom   1H    basis set group =>   2
Atom   2H    basis set group =>   2
Atom   3O    basis set group =>   1
Atom   4H    basis set group =>   2
Atom   5H    basis set group =>   2
Atom   6O    basis set group =>   1
Atom   7H    basis set group =>   2
Atom   8H    basis set group =>   2
Atom   9O    basis set group =>   1
Atom  10H    basis set group =>   2
Atom  11H    basis set group =>   2
Atom  12O    basis set group =>   1
Atom  13H    basis set group =>   2
Atom  14H    basis set group =>   2
Atom  15O    basis set group =>   1
Atom  16H    basis set group =>   2
Atom  17H    basis set group =>   2


           ************************************************************
           *        Program running with 24 parallel MPI-processes    *
           *              working on a common directory               *
           ************************************************************
------------------------------------------------------------------------------
                           ORCA GTO INTEGRAL CALCULATION
                           -- RI-GTO INTEGRALS CHOSEN --
------------------------------------------------------------------------------

                         BASIS SET STATISTICS AND STARTUP INFO

Gaussian basis set:
 # of primitive gaussian shells          ...  312
 # of primitive gaussian functions       ...  696
 # of contracted shells                  ...  192
 # of contracted basis functions         ...  552
 Highest angular momentum                ...    3
 Maximum contraction depth               ...    8
Auxiliary gaussian basis set:
 # of primitive gaussian shells          ...  240
 # of primitive gaussian functions       ...  612
 # of contracted shells                  ...  150
 # of contracted aux-basis functions     ...  426
 Highest angular momentum                ...    4
 Maximum contraction depth               ...    7
Ratio of auxiliary to basis functions    ...  0.77
Integral package used                  ... LIBINT
 One Electron integrals                  ... done
 Ordering auxiliary basis shells         ... done
 Integral threshhold             Thresh  ...  2.500e-11
 Primitive cut-off               TCut    ...  2.500e-12
 Pre-screening matrix                    ... done
 Shell pair data                         ... 
 Ordering of the shell pairs             ... done (   0.003 sec) 17560 of 18528 pairs
 Determination of significant pairs      ... done (   0.000 sec)
 Creation of shell pair data             ... done (   0.002 sec)
 Storage of shell pair data              ... done (   0.004 sec)
 Shell pair data done in (   0.009 sec)
 Computing two index integrals           ... done
 Cholesky decomposition of the V-matrix  ... done


Timings:
 Total evaluation time                   ...   0.448 sec (  0.007 min)
 One electron matrix time                ...   0.130 sec (  0.002 min) = 29.0%
 Schwartz matrix evaluation time         ...   0.202 sec (  0.003 min) = 45.0%
 Two index repulsion integral time       ...   0.004 sec (  0.000 min) =  0.8%
 Cholesky decomposition of V             ...   0.078 sec (  0.001 min) = 17.4%
 Three index repulsion integral time     ...   0.000 sec (  0.000 min) =  0.0%



           ************************************************************
           *        Program running with 24 parallel MPI-processes    *
           *              working on a common directory               *
           ************************************************************
-------------------------------------------------------------------------------
                                 ORCA SCF
-------------------------------------------------------------------------------

------------
SCF SETTINGS
------------
Hamiltonian:
 Density Functional     Method          .... DFT(GTOs)
 Exchange Functional    Exchange        .... SCAN
 Correlation Functional Correlation     .... SCAN
 Gradients option       PostSCFGGA      .... off
   Density functional embedding theory  .... OFF
   NL short-range parameter             ....  6.400000
 RI-approximation to the Coulomb term is turned on
   Number of auxiliary basis functions  .... 426


General Settings:
 Integral files         IntName         .... 08_H2O_6_cage
 Hartree-Fock type      HFTyp           .... RHF
 Total Charge           Charge          ....    0
 Multiplicity           Mult            ....    1
 Number of Electrons    NEL             ....   60
 Basis Dimension        Dim             ....  552
 Nuclear Repulsion      ENuc            ....    300.0964983793 Eh

Convergence Acceleration:
 DIIS                   CNVDIIS         .... on
   Start iteration      DIISMaxIt       ....    12
   Startup error        DIISStart       ....  0.200000
   # of expansion vecs  DIISMaxEq       ....     5
   Bias factor          DIISBfac        ....   1.050
   Max. coefficient     DIISMaxC        ....  10.000
 Newton-Raphson         CNVNR           .... off
 SOSCF                  CNVSOSCF        .... on
   Start iteration      SOSCFMaxIt      ....   150
   Startup grad/error   SOSCFStart      ....  0.003300
 Level Shifting         CNVShift        .... on
   Level shift para.    LevelShift      ....    0.2500
   Turn off err/grad.   ShiftErr        ....    0.0010
 Zerner damping         CNVZerner       .... off
 Static damping         CNVDamp         .... on
   Fraction old density DampFac         ....    0.7000
   Max. Damping (<1)    DampMax         ....    0.9800
   Min. Damping (>=0)   DampMin         ....    0.0000
   Turn off err/grad.   DampErr         ....    0.1000
 Fernandez-Rico         CNVRico         .... off

SCF Procedure:
 Maximum # iterations   MaxIter         ....   125
 SCF integral mode      SCFMode         .... Direct
   Integral package                     .... LIBINT
 Reset frequency        DirectResetFreq ....    20
 Integral Threshold     Thresh          ....  2.500e-11 Eh
 Primitive CutOff       TCut            ....  2.500e-12 Eh

Convergence Tolerance:
 Convergence Check Mode ConvCheckMode   .... Total+1el-Energy
 Convergence forced     ConvForced      .... 0
 Energy Change          TolE            ....  1.000e-08 Eh
 1-El. energy change                    ....  1.000e-05 Eh
 Orbital Gradient       TolG            ....  1.000e-05
 Orbital Rotation angle TolX            ....  1.000e-05
 DIIS Error             TolErr          ....  5.000e-07


Diagonalization of the overlap matrix:
Smallest eigenvalue                        ... 3.507e-05
Time for diagonalization                   ...    0.055 sec
Threshold for overlap eigenvalues          ... 1.000e-08
Number of eigenvalues below threshold      ... 0
Time for construction of square roots      ...    0.042 sec
Total time needed                          ...    0.098 sec

-------------------
DFT GRID GENERATION
-------------------

General Integration Accuracy     IntAcc      ...  4.670
Radial Grid Type                 RadialGrid  ... Gauss-Chebyshev
Angular Grid (max. acc.)         AngularGrid ... Lebedev-302
Angular grid pruning method      GridPruning ... 3 (G Style)
Weight generation scheme         WeightScheme... Becke
Basis function cutoff            BFCut       ...    1.0000e-11
Integration weight cutoff        WCut        ...    1.0000e-14
Grids for H and He will be reduced by one unit

# of grid points (after initial pruning)     ...  78000 (   0.0 sec)
# of grid points (after weights+screening)   ...  71821 (   0.0 sec)
nearest neighbour list constructed           ...    0.0 sec
Grid point re-assignment to atoms done       ...    0.0 sec
Grid point division into batches done        ...    0.2 sec
Reduced shell lists constructed in    0.2 sec

Total number of grid points                  ...    71821
Total number of batches                      ...     1132
Average number of points per batch           ...       63
Average number of grid points per atom       ...     3990
Average number of shells per batch           ...   145.08 (75.56%)
Average number of basis functions per batch  ...   406.39 (73.62%)
Average number of large shells per batch     ...   117.55 (81.02%)
Average number of large basis fcns per batch ...   321.27 (79.05%)
Maximum spatial batch extension              ...   2.85,  2.34,  2.33 au
Average spatial batch extension              ...   0.04,  0.04,  0.04 au

Time for grid setup =    0.295 sec

------------------------------
INITIAL GUESS: MODEL POTENTIAL
------------------------------
Loading Hartree-Fock densities                     ... done
Calculating cut-offs                               ... done
Setting up the integral package                    ... done
Initializing the effective Hamiltonian             ... done
Starting the Coulomb interaction                   ... done (   0.0 sec)
Reading the grid                                   ... done
Mapping shells                                     ... done
Starting the XC term evaluation                    ... done (   0.2 sec)
  promolecular density results
     # of electrons  =     59.993214953
     EX              =    -57.937662921
     EC              =     -0.965727360
     EX+EC           =    -58.903390282
Transforming the Hamiltonian                       ... done (   0.0 sec)
Diagonalizing the Hamiltonian                      ... done (   0.0 sec)
Back transforming the eigenvectors                 ... done (   0.0 sec)
Now organizing SCF variables                       ... done
                      ------------------
                      INITIAL GUESS DONE (   0.6 sec)
                      ------------------
--------------
SCF ITERATIONS
--------------
ITER       Energy         Delta-E        Max-DP      RMS-DP      [F,P]     Damp
               ***  Starting incremental Fock matrix formation  ***
  0   -457.4004786928   0.000000000000 0.08471376  0.00113238  0.5580413 0.7000
  1   -458.0246956880  -0.624216995238 0.03042532  0.00055306  0.2227894 0.7000
                               ***Turning on DIIS***
  2   -458.2142879868  -0.189592298797 0.05659212  0.00071379  0.0613999 0.0000
  3   -458.5690459533  -0.354757966465 0.00627365  0.00011514  0.1231713 0.7000
  4   -458.5943298800  -0.025283926754 0.01796497  0.00036318  0.0938554 0.0000
  5   -458.6383921099  -0.044062229908 0.00575313  0.00006376  0.0045486 0.0000
  6   -458.6385908561  -0.000198746151 0.00171119  0.00002467  0.0038103 0.0000
                      *** Initiating the SOSCF procedure ***
                           *** Shutting down DIIS ***
                      *** Re-Reading the Fockian *** 
                      *** Removing any level shift *** 
ITER      Energy       Delta-E        Grad      Rot      Max-DP    RMS-DP
  7   -458.63863501  -0.0000441567  0.000244  0.000244  0.000962  0.000011
               *** Restarting incremental Fock matrix formation ***
  8   -458.63864349  -0.0000084775  0.000077  0.000252  0.000637  0.000008
  9   -458.63864416  -0.0000006648  0.000051  0.000103  0.000190  0.000002
 10   -458.63864459  -0.0000004312  0.000025  0.000074  0.000203  0.000002
 11   -458.63864467  -0.0000000817  0.000012  0.000010  0.000041  0.000000
 12   -458.63864470  -0.0000000342  0.000004  0.000011  0.000025  0.000000
 13   -458.63864472  -0.0000000170  0.000004  0.000004  0.000009  0.000000
                  ***Gradient check signals convergence***
              ***Rediagonalizing the Fockian in SOSCF/NRSCF***

               *****************************************************
               *                     SUCCESS                       *
               *           SCF CONVERGED AFTER  14 CYCLES          *
               *****************************************************


----------------
TOTAL SCF ENERGY
----------------

Total Energy       :         -458.63864472 Eh          -12480.19200 eV

Components:
Nuclear Repulsion  :          300.09649838 Eh            8166.04087 eV
Electronic Energy  :         -758.73514310 Eh          -20646.23288 eV
One Electron Energy:        -1228.24770500 Eh          -33422.31921 eV
Two Electron Energy:          469.51256190 Eh           12776.08633 eV

Virial components:
Potential Energy   :         -914.86219406 Eh          -24894.66592 eV
Kinetic Energy     :          456.22354934 Eh           12414.47392 eV
Virial Ratio       :            2.00529367


DFT components:
N(Alpha)           :       29.999820488766 electrons
N(Beta)            :       29.999820488766 electrons
N(Total)           :       59.999640977532 electrons
E(X)               :      -53.919338959739 Eh       
E(C)               :       -1.943163018568 Eh       
E(XC)              :      -55.862501978306 Eh       
DFET-embed. en.    :        0.000000000000 Eh       

---------------
SCF CONVERGENCE
---------------

  Last Energy change         ...   -5.7494e-09  Tolerance :   1.0000e-08
  Last MAX-Density change    ...    9.7303e-06  Tolerance :   1.0000e-07
  Last RMS-Density change    ...    1.3025e-07  Tolerance :   5.0000e-09
  Last Orbital Gradient      ...    9.0556e-07  Tolerance :   1.0000e-05
  Last Orbital Rotation      ...    3.7538e-06  Tolerance :   1.0000e-05

             **** THE GBW FILE WAS UPDATED (08_H2O_6_cage.gbw) ****
             **** DENSITY FILE WAS UPDATED (08_H2O_6_cage.scfp) ****
             **** ENERGY FILE WAS UPDATED (08_H2O_6_cage.en.tmp) ****
             **** THE GBW FILE WAS UPDATED (08_H2O_6_cage.gbw) ****
             **** DENSITY FILE WAS UPDATED (08_H2O_6_cage.scfp) ****
----------------
ORBITAL ENERGIES
----------------

  NO   OCC          E(Eh)            E(eV) 
   0   2.0000     -18.974645      -516.3263 
   1   2.0000     -18.971040      -516.2283 
   2   2.0000     -18.970370      -516.2100 
   3   2.0000     -18.952712      -515.7295 
   4   2.0000     -18.951020      -515.6835 
   5   2.0000     -18.947121      -515.5774 
   6   2.0000      -1.001298       -27.2467 
   7   2.0000      -0.990903       -26.9638 
   8   2.0000      -0.985062       -26.8049 
   9   2.0000      -0.976038       -26.5593 
  10   2.0000      -0.967938       -26.3389 
  11   2.0000      -0.960151       -26.1270 
  12   2.0000      -0.524119       -14.2620 
  13   2.0000      -0.512242       -13.9388 
  14   2.0000      -0.502711       -13.6795 
  15   2.0000      -0.497818       -13.5463 
  16   2.0000      -0.484043       -13.1715 
  17   2.0000      -0.480080       -13.0636 
  18   2.0000      -0.405896       -11.0450 
  19   2.0000      -0.378753       -10.3064 
  20   2.0000      -0.371839       -10.1182 
  21   2.0000      -0.355185        -9.6651 
  22   2.0000      -0.353686        -9.6243 
  23   2.0000      -0.331963        -9.0332 
  24   2.0000      -0.300371        -8.1735 
  25   2.0000      -0.297856        -8.1051 
  26   2.0000      -0.293169        -7.9775 
  27   2.0000      -0.281084        -7.6487 
  28   2.0000      -0.273086        -7.4310 
  29   2.0000      -0.270809        -7.3691 
  30   0.0000      -0.023874        -0.6496 
  31   0.0000       0.003313         0.0902 
  32   0.0000       0.004980         0.1355 
  33   0.0000       0.019455         0.5294 
  34   0.0000       0.034389         0.9358 
  35   0.0000       0.045983         1.2513 
  36   0.0000       0.047839         1.3018 
  37   0.0000       0.052036         1.4160 
  38   0.0000       0.052854         1.4382 
  39   0.0000       0.066190         1.8011 
  40   0.0000       0.072771         1.9802 
  41   0.0000       0.075851         2.0640 
  42   0.0000       0.080710         2.1962 
  43   0.0000       0.090886         2.4731 
  44   0.0000       0.095380         2.5954 
  45   0.0000       0.102824         2.7980 
  46   0.0000       0.118350         3.2205 
  47   0.0000       0.122679         3.3383 
  48   0.0000       0.128556         3.4982 
  49   0.0000       0.132869         3.6156 
  50   0.0000       0.137012         3.7283 
  51   0.0000       0.138582         3.7710 
  52   0.0000       0.147207         4.0057 
  53   0.0000       0.150627         4.0988 
  54   0.0000       0.160391         4.3644 
  55   0.0000       0.164771         4.4837 
  56   0.0000       0.165817         4.5121 
  57   0.0000       0.166898         4.5415 
  58   0.0000       0.170951         4.6518 
  59   0.0000       0.176600         4.8055 
  60   0.0000       0.179453         4.8832 
  61   0.0000       0.196007         5.3336 
  62   0.0000       0.201156         5.4737 
  63   0.0000       0.201743         5.4897 
  64   0.0000       0.208921         5.6850 
  65   0.0000       0.214386         5.8337 
  66   0.0000       0.217569         5.9203 
  67   0.0000       0.219714         5.9787 
  68   0.0000       0.227318         6.1856 
  69   0.0000       0.234635         6.3848 
  70   0.0000       0.236541         6.4366 
  71   0.0000       0.250796         6.8245 
  72   0.0000       0.254025         6.9124 
  73   0.0000       0.264294         7.1918 
  74   0.0000       0.267962         7.2916 
  75   0.0000       0.274253         7.4628 
  76   0.0000       0.286060         7.7841 
  77   0.0000       0.296597         8.0708 
  78   0.0000       0.300394         8.1741 
  79   0.0000       0.307386         8.3644 
  80   0.0000       0.315157         8.5758 
  81   0.0000       0.320970         8.7341 
  82   0.0000       0.333207         9.0670 
  83   0.0000       0.337806         9.1922 
  84   0.0000       0.340873         9.2756 
  85   0.0000       0.346000         9.4151 
  86   0.0000       0.354737         9.6529 
  87   0.0000       0.358255         9.7486 
  88   0.0000       0.362576         9.8662 
  89   0.0000       0.366396         9.9701 
  90   0.0000       0.373720        10.1694 
  91   0.0000       0.374246        10.1838 
  92   0.0000       0.377375        10.2689 
  93   0.0000       0.384913        10.4740 
  94   0.0000       0.387648        10.5484 
  95   0.0000       0.397469        10.8157 
  96   0.0000       0.403569        10.9817 
  97   0.0000       0.405765        11.0414 
  98   0.0000       0.413146        11.2423 
  99   0.0000       0.424110        11.5406 
 100   0.0000       0.432246        11.7620 
 101   0.0000       0.437769        11.9123 
 102   0.0000       0.444603        12.0983 
 103   0.0000       0.447274        12.1709 
 104   0.0000       0.450206        12.2507 
 105   0.0000       0.463629        12.6160 
 106   0.0000       0.474305        12.9065 
 107   0.0000       0.484610        13.1869 
 108   0.0000       0.490618        13.3504 
 109   0.0000       0.501039        13.6340 
 110   0.0000       0.503738        13.7074 
 111   0.0000       0.519007        14.1229 
 112   0.0000       0.523925        14.2567 
 113   0.0000       0.528842        14.3905 
 114   0.0000       0.548138        14.9156 
 115   0.0000       0.564972        15.3737 
 116   0.0000       0.575346        15.6560 
 117   0.0000       0.579053        15.7568 
 118   0.0000       0.585413        15.9299 
 119   0.0000       0.589903        16.0521 
 120   0.0000       0.605925        16.4881 
 121   0.0000       0.613929        16.7059 
 122   0.0000       0.622771        16.9465 
 123   0.0000       0.630394        17.1539 
 124   0.0000       0.638032        17.3617 
 125   0.0000       0.644503        17.5378 
 126   0.0000       0.661478        17.9997 
 127   0.0000       0.665647        18.1132 
 128   0.0000       0.667994        18.1770 
 129   0.0000       0.673174        18.3180 
 130   0.0000       0.691491        18.8164 
 131   0.0000       0.700034        19.0489 
 132   0.0000       0.705082        19.1863 
 133   0.0000       0.719088        19.5674 
 134   0.0000       0.719605        19.5814 
 135   0.0000       0.724774        19.7221 
 136   0.0000       0.740944        20.1621 
 137   0.0000       0.750764        20.4293 
 138   0.0000       0.756492        20.5852 
 139   0.0000       0.768795        20.9200 
 140   0.0000       0.773451        21.0467 
 141   0.0000       0.784808        21.3557 
 142   0.0000       0.791486        21.5374 
 143   0.0000       0.802442        21.8355 
 144   0.0000       0.805709        21.9245 
 145   0.0000       0.813401        22.1338 
 146   0.0000       0.817183        22.2367 
 147   0.0000       0.829368        22.5683 
 148   0.0000       0.835080        22.7237 
 149   0.0000       0.851951        23.1828 
 150   0.0000       0.854373        23.2487 
 151   0.0000       0.859253        23.3815 
 152   0.0000       0.867568        23.6077 
 153   0.0000       0.873787        23.7770 
 154   0.0000       0.876488        23.8505 
 155   0.0000       0.882176        24.0052 
 156   0.0000       0.897690        24.4274 
 157   0.0000       0.898269        24.4431 
 158   0.0000       0.915261        24.9055 
 159   0.0000       0.920102        25.0373 
 160   0.0000       0.922527        25.1032 
 161   0.0000       0.933033        25.3891 
 162   0.0000       0.942256        25.6401 
 163   0.0000       0.951497        25.8915 
 164   0.0000       0.962876        26.2012 
 165   0.0000       0.969610        26.3844 
 166   0.0000       0.977551        26.6005 
 167   0.0000       0.979340        26.6492 
 168   0.0000       1.010357        27.4932 
 169   0.0000       1.013722        27.5848 
 170   0.0000       1.015023        27.6202 
 171   0.0000       1.029090        28.0030 
 172   0.0000       1.036063        28.1927 
 173   0.0000       1.041116        28.3302 
 174   0.0000       1.048328        28.5265 
 175   0.0000       1.059512        28.8308 
 176   0.0000       1.063185        28.9307 
 177   0.0000       1.071543        29.1582 
 178   0.0000       1.074966        29.2513 
 179   0.0000       1.080394        29.3990 
 180   0.0000       1.087083        29.5810 
 181   0.0000       1.095075        29.7985 
 182   0.0000       1.109094        30.1800 
 183   0.0000       1.110907        30.2293 
 184   0.0000       1.122872        30.5549 
 185   0.0000       1.129596        30.7379 
 186   0.0000       1.131615        30.7928 
 187   0.0000       1.135641        30.9024 
 188   0.0000       1.143934        31.1280 
 189   0.0000       1.152109        31.3505 
 190   0.0000       1.160388        31.5758 
 191   0.0000       1.166467        31.7412 
 192   0.0000       1.172568        31.9072 
 193   0.0000       1.180348        32.1189 
 194   0.0000       1.193752        32.4836 
 195   0.0000       1.197308        32.5804 
 196   0.0000       1.202776        32.7292 
 197   0.0000       1.213501        33.0210 
 198   0.0000       1.220935        33.2233 
 199   0.0000       1.232519        33.5385 
 200   0.0000       1.250568        34.0297 
 201   0.0000       1.254356        34.1328 
 202   0.0000       1.269309        34.5397 
 203   0.0000       1.275391        34.7052 
 204   0.0000       1.285861        34.9901 
 205   0.0000       1.290782        35.1240 
 206   0.0000       1.296660        35.2839 
 207   0.0000       1.312081        35.7035 
 208   0.0000       1.332783        36.2669 
 209   0.0000       1.341918        36.5154 
 210   0.0000       1.353185        36.8220 
 211   0.0000       1.363706        37.1083 
 212   0.0000       1.368524        37.2394 
 213   0.0000       1.375409        37.4268 
 214   0.0000       1.389741        37.8168 
 215   0.0000       1.403764        38.1984 
 216   0.0000       1.411922        38.4204 
 217   0.0000       1.429887        38.9092 
 218   0.0000       1.441595        39.2278 
 219   0.0000       1.448907        39.4268 
 220   0.0000       1.462740        39.8032 
 221   0.0000       1.483190        40.3597 
 222   0.0000       1.486516        40.4502 
 223   0.0000       1.496656        40.7261 
 224   0.0000       1.502451        40.8838 
 225   0.0000       1.511853        41.1396 
 226   0.0000       1.521052        41.3899 
 227   0.0000       1.529809        41.6282 
 228   0.0000       1.534897        41.7667 
 229   0.0000       1.536326        41.8056 
 230   0.0000       1.555862        42.3372 
 231   0.0000       1.564225        42.5647 
 232   0.0000       1.582581        43.0642 
 233   0.0000       1.591344        43.3027 
 234   0.0000       1.596892        43.4536 
 235   0.0000       1.628290        44.3080 
 236   0.0000       1.635614        44.5073 
 237   0.0000       1.646521        44.8041 
 238   0.0000       1.651264        44.9332 
 239   0.0000       1.659485        45.1569 
 240   0.0000       1.668888        45.4127 
 241   0.0000       1.692387        46.0522 
 242   0.0000       1.708761        46.4977 
 243   0.0000       1.712062        46.5876 
 244   0.0000       1.724493        46.9258 
 245   0.0000       1.745715        47.5033 
 246   0.0000       1.753852        47.7247 
 247   0.0000       1.768120        48.1130 
 248   0.0000       1.773602        48.2622 
 249   0.0000       1.788910        48.6787 
 250   0.0000       1.798522        48.9403 
 251   0.0000       1.816650        49.4336 
 252   0.0000       1.835696        49.9518 
 253   0.0000       1.846711        50.2516 
 254   0.0000       1.862982        50.6943 
 255   0.0000       1.882534        51.2264 
 256   0.0000       1.896686        51.6115 
 257   0.0000       1.897429        51.6317 
 258   0.0000       1.918735        52.2114 
 259   0.0000       1.937151        52.7126 
 260   0.0000       1.950102        53.0650 
 261   0.0000       1.962151        53.3928 
 262   0.0000       1.967619        53.5416 
 263   0.0000       1.993982        54.2590 
 264   0.0000       2.036094        55.4049 
 265   0.0000       2.068933        56.2985 
 266   0.0000       2.069348        56.3098 
 267   0.0000       2.106464        57.3198 
 268   0.0000       2.127124        57.8820 
 269   0.0000       2.130741        57.9804 
 270   0.0000       2.159294        58.7574 
 271   0.0000       2.177217        59.2451 
 272   0.0000       2.189459        59.5782 
 273   0.0000       2.202349        59.9290 
 274   0.0000       2.223982        60.5176 
 275   0.0000       2.232220        60.7418 
 276   0.0000       2.249157        61.2027 
 277   0.0000       2.263908        61.6041 
 278   0.0000       2.267039        61.6893 
 279   0.0000       2.273312        61.8600 
 280   0.0000       2.293869        62.4193 
 281   0.0000       2.304192        62.7002 
 282   0.0000       2.315555        63.0095 
 283   0.0000       2.328287        63.3559 
 284   0.0000       2.344448        63.7957 
 285   0.0000       2.353608        64.0449 
 286   0.0000       2.361643        64.2636 
 287   0.0000       2.368509        64.4504 
 288   0.0000       2.374170        64.6045 
 289   0.0000       2.392864        65.1131 
 290   0.0000       2.397323        65.2345 
 291   0.0000       2.407720        65.5174 
 292   0.0000       2.428460        66.0818 
 293   0.0000       2.448962        66.6396 
 294   0.0000       2.455153        66.8081 
 295   0.0000       2.478641        67.4472 
 296   0.0000       2.497661        67.9648 
 297   0.0000       2.506939        68.2173 
 298   0.0000       2.524046        68.6828 
 299   0.0000       2.533798        68.9481 
 300   0.0000       2.535719        69.0004 
 301   0.0000       2.546094        69.2828 
 302   0.0000       2.559544        69.6487 
 303   0.0000       2.571299        69.9686 
 304   0.0000       2.585393        70.3521 
 305   0.0000       2.597008        70.6682 
 306   0.0000       2.604609        70.8750 
 307   0.0000       2.620830        71.3164 
 308   0.0000       2.634877        71.6986 
 309   0.0000       2.641764        71.8860 
 310   0.0000       2.649268        72.0902 
 311   0.0000       2.672320        72.7175 
 312   0.0000       2.676947        72.8434 
 313   0.0000       2.683893        73.0324 
 314   0.0000       2.699765        73.4643 
 315   0.0000       2.709403        73.7266 
 316   0.0000       2.727001        74.2055 
 317   0.0000       2.732371        74.3516 
 318   0.0000       2.745817        74.7175 
 319   0.0000       2.751842        74.8814 
 320   0.0000       2.767039        75.2950 
 321   0.0000       2.783108        75.7322 
 322   0.0000       2.792168        75.9788 
 323   0.0000       2.811348        76.5007 
 324   0.0000       2.817463        76.6671 
 325   0.0000       2.832086        77.0650 
 326   0.0000       2.841324        77.3164 
 327   0.0000       2.844709        77.4085 
 328   0.0000       2.851454        77.5920 
 329   0.0000       2.864337        77.9426 
 330   0.0000       2.877319        78.2958 
 331   0.0000       2.893995        78.7496 
 332   0.0000       2.911610        79.2289 
 333   0.0000       2.921598        79.5007 
 334   0.0000       2.928306        79.6833 
 335   0.0000       2.941907        80.0534 
 336   0.0000       2.952841        80.3509 
 337   0.0000       2.981312        81.1256 
 338   0.0000       2.994278        81.4784 
 339   0.0000       3.011215        81.9393 
 340   0.0000       3.019614        82.1679 
 341   0.0000       3.030011        82.4508 
 342   0.0000       3.054163        83.1080 
 343   0.0000       3.064669        83.3939 
 344   0.0000       3.090192        84.0884 
 345   0.0000       3.127721        85.1096 
 346   0.0000       3.143120        85.5286 
 347   0.0000       3.172760        86.3352 
 348   0.0000       3.699711       100.6743 
 349   0.0000       3.734415       101.6186 
 350   0.0000       3.812109       103.7328 
 351   0.0000       3.837275       104.4176 
 352   0.0000       3.869202       105.2864 
 353   0.0000       3.887972       105.7971 
 354   0.0000       3.901691       106.1704 
 355   0.0000       3.923426       106.7619 
 356   0.0000       3.928590       106.9024 
 357   0.0000       3.955454       107.6334 
 358   0.0000       3.977879       108.2436 
 359   0.0000       3.980276       108.3088 
 360   0.0000       3.995196       108.7148 
 361   0.0000       4.009695       109.1093 
 362   0.0000       4.031992       109.7161 
 363   0.0000       4.049359       110.1886 
 364   0.0000       4.070394       110.7610 
 365   0.0000       4.081164       111.0541 
 366   0.0000       4.097025       111.4857 
 367   0.0000       4.104380       111.6859 
 368   0.0000       4.124862       112.2432 
 369   0.0000       4.152914       113.0065 
 370   0.0000       4.155928       113.0886 
 371   0.0000       4.176304       113.6430 
 372   0.0000       4.186734       113.9268 
 373   0.0000       4.207391       114.4889 
 374   0.0000       4.213873       114.6653 
 375   0.0000       4.225811       114.9902 
 376   0.0000       4.241121       115.4068 
 377   0.0000       4.251686       115.6943 
 378   0.0000       4.263128       116.0056 
 379   0.0000       4.276964       116.3821 
 380   0.0000       4.291266       116.7713 
 381   0.0000       4.293816       116.8407 
 382   0.0000       4.310268       117.2883 
 383   0.0000       4.319741       117.5461 
 384   0.0000       4.349596       118.3585 
 385   0.0000       4.368296       118.8674 
 386   0.0000       4.371883       118.9650 
 387   0.0000       4.375072       119.0518 
 388   0.0000       4.410768       120.0231 
 389   0.0000       4.419836       120.2699 
 390   0.0000       4.424927       120.4084 
 391   0.0000       4.451724       121.1376 
 392   0.0000       4.466537       121.5406 
 393   0.0000       4.470828       121.6574 
 394   0.0000       4.483033       121.9895 
 395   0.0000       4.494130       122.2915 
 396   0.0000       4.497956       122.3956 
 397   0.0000       4.502496       122.5191 
 398   0.0000       4.512121       122.7810 
 399   0.0000       4.542498       123.6077 
 400   0.0000       4.544547       123.6634 
 401   0.0000       4.556735       123.9951 
 402   0.0000       4.561168       124.1157 
 403   0.0000       4.583373       124.7199 
 404   0.0000       4.596159       125.0678 
 405   0.0000       4.608133       125.3937 
 406   0.0000       4.617226       125.6411 
 407   0.0000       4.633315       126.0789 
 408   0.0000       4.656077       126.6983 
 409   0.0000       4.672238       127.1381 
 410   0.0000       4.688431       127.5787 
 411   0.0000       4.710869       128.1893 
 412   0.0000       4.718143       128.3872 
 413   0.0000       4.758194       129.4771 
 414   0.0000       4.773654       129.8977 
 415   0.0000       4.783308       130.1604 
 416   0.0000       4.814451       131.0079 
 417   0.0000       4.819023       131.1323 
 418   0.0000       4.850632       131.9924 
 419   0.0000       4.859944       132.2458 
 420   0.0000       4.904405       133.4557 
 421   0.0000       4.925389       134.0267 
 422   0.0000       4.962567       135.0383 
 423   0.0000       4.976975       135.4304 
 424   0.0000       4.995574       135.9365 
 425   0.0000       5.008957       136.3007 
 426   0.0000       5.047611       137.3525 
 427   0.0000       5.058492       137.6486 
 428   0.0000       5.067980       137.9067 
 429   0.0000       5.081722       138.2807 
 430   0.0000       5.089200       138.4842 
 431   0.0000       5.122540       139.3914 
 432   0.0000       5.129972       139.5936 
 433   0.0000       5.142068       139.9228 
 434   0.0000       5.155065       140.2764 
 435   0.0000       5.176245       140.8528 
 436   0.0000       5.205312       141.6437 
 437   0.0000       5.208657       141.7348 
 438   0.0000       5.213173       141.8576 
 439   0.0000       5.227998       142.2611 
 440   0.0000       5.254537       142.9832 
 441   0.0000       5.265938       143.2935 
 442   0.0000       5.271995       143.4583 
 443   0.0000       5.287298       143.8747 
 444   0.0000       5.311495       144.5331 
 445   0.0000       5.326886       144.9519 
 446   0.0000       5.337202       145.2326 
 447   0.0000       5.352939       145.6609 
 448   0.0000       5.385283       146.5410 
 449   0.0000       5.414394       147.3332 
 450   0.0000       5.429205       147.7362 
 451   0.0000       5.455131       148.4417 
 452   0.0000       5.509943       149.9332 
 453   0.0000       5.556239       151.1929 
 454   0.0000       5.615485       152.8051 
 455   0.0000       5.628036       153.1467 
 456   0.0000       5.669820       154.2837 
 457   0.0000       5.684393       154.6802 
 458   0.0000       5.713947       155.4844 
 459   0.0000       5.734482       156.0432 
 460   0.0000       5.826648       158.5512 
 461   0.0000       5.867171       159.6538 
 462   0.0000       6.085163       165.5857 
 463   0.0000       6.145077       167.2160 
 464   0.0000       6.157577       167.5562 
 465   0.0000       6.196694       168.6206 
 466   0.0000       6.272435       170.6816 
 467   0.0000       6.324371       172.0949 
 468   0.0000       6.333556       172.3448 
 469   0.0000       6.339638       172.5103 
 470   0.0000       6.347371       172.7207 
 471   0.0000       6.397747       174.0916 
 472   0.0000       6.420277       174.7046 
 473   0.0000       6.474869       176.1902 
 474   0.0000       6.617659       180.0756 
 475   0.0000       6.628473       180.3699 
 476   0.0000       6.646200       180.8523 
 477   0.0000       6.652368       181.0201 
 478   0.0000       6.671118       181.5303 
 479   0.0000       6.691531       182.0858 
 480   0.0000       6.729164       183.1099 
 481   0.0000       6.750285       183.6846 
 482   0.0000       6.767777       184.1606 
 483   0.0000       6.796179       184.9334 
 484   0.0000       6.826444       185.7570 
 485   0.0000       6.852826       186.4749 
 486   0.0000       6.927760       188.5139 
 487   0.0000       6.932379       188.6396 
 488   0.0000       6.956318       189.2910 
 489   0.0000       6.977829       189.8764 
 490   0.0000       6.987791       190.1474 
 491   0.0000       7.004025       190.5892 
 492   0.0000       7.016736       190.9351 
 493   0.0000       7.033306       191.3860 
 494   0.0000       7.047317       191.7673 
 495   0.0000       7.061551       192.1546 
 496   0.0000       7.069687       192.3760 
 497   0.0000       7.085452       192.8050 
 498   0.0000       7.088997       192.9014 
 499   0.0000       7.094480       193.0506 
 500   0.0000       7.100133       193.2044 
 501   0.0000       7.109012       193.4460 
 502   0.0000       7.115498       193.6225 
 503   0.0000       7.131186       194.0494 
 504   0.0000       7.149552       194.5492 
 505   0.0000       7.153825       194.6655 
 506   0.0000       7.165237       194.9760 
 507   0.0000       7.169396       195.0892 
 508   0.0000       7.179940       195.3761 
 509   0.0000       7.195295       195.7939 
 510   0.0000       7.210088       196.1965 
 511   0.0000       7.228846       196.7069 
 512   0.0000       7.231741       196.7857 
 513   0.0000       7.237128       196.9323 
 514   0.0000       7.271338       197.8632 
 515   0.0000       7.294977       198.5064 
 516   0.0000       7.308325       198.8696 
 517   0.0000       7.323180       199.2739 
 518   0.0000       7.367194       200.4715 
 519   0.0000       7.409837       201.6319 
 520   0.0000       7.428884       202.1502 
 521   0.0000       7.452115       202.7824 
 522   0.0000       7.503291       204.1749 
 523   0.0000       7.597923       206.7500 
 524   0.0000       7.638804       207.8624 
 525   0.0000       7.653979       208.2753 
 526   0.0000       7.691619       209.2996 
 527   0.0000       7.740194       210.6214 
 528   0.0000       7.759715       211.1526 
 529   0.0000       7.783571       211.8017 
 530   0.0000       7.787296       211.9031 
 531   0.0000       7.809670       212.5119 
 532   0.0000       7.813244       212.6092 
 533   0.0000       7.857688       213.8186 
 534   0.0000       7.869778       214.1476 
 535   0.0000       7.913043       215.3248 
 536   0.0000       7.921086       215.5437 
 537   0.0000       7.931742       215.8337 
 538   0.0000       7.949610       216.3199 
 539   0.0000       8.027440       218.4377 
 540   0.0000       8.667677       235.8595 
 541   0.0000       8.682174       236.2540 
 542   0.0000       8.713888       237.1169 
 543   0.0000       8.736204       237.7242 
 544   0.0000       8.762932       238.4515 
 545   0.0000       8.814973       239.8676 
 546   0.0000      16.069081       437.2619 
 547   0.0000      16.219152       441.3456 
 548   0.0000      16.531527       449.8457 
 549   0.0000      16.969460       461.7625 
 550   0.0000      17.103849       465.4194 
 551   0.0000      17.509409       476.4552 

                    ********************************
                    * MULLIKEN POPULATION ANALYSIS *
                    ********************************

-----------------------
MULLIKEN ATOMIC CHARGES
-----------------------
   0 O :   -0.493090
   1 H :    0.338644
   2 H :    0.126290
   3 O :   -0.501941
   4 H :    0.256307
   5 H :    0.289030
   6 O :   -0.449411
   7 H :    0.327316
   8 H :    0.112601
   9 O :   -0.594752
  10 H :    0.304301
  11 H :    0.304738
  12 O :   -0.435500
  13 H :    0.284978
  14 H :    0.153359
  15 O :   -0.468890
  16 H :    0.283001
  17 H :    0.163020
Sum of atomic charges:    0.0000000

--------------------------------
MULLIKEN REDUCED ORBITAL CHARGES
--------------------------------
  0 O s       :     4.017618  s :     4.017618
      pz      :     1.772723  p :     4.469786
      px      :     1.465858
      py      :     1.231206
      dz2     :    -0.000170  d :     0.006002
      dxz     :     0.002506
      dyz     :    -0.001507
      dx2y2   :    -0.000817
      dxy     :     0.005990
      f0      :     0.000046  f :    -0.000316
      f+1     :     0.000070
      f-1     :     0.000020
      f+2     :    -0.000041
      f-2     :    -0.000040
      f+3     :    -0.000074
      f-3     :    -0.000297
  1 H s       :     0.555073  s :     0.555073
      pz      :     0.056862  p :     0.067821
      px      :     0.000828
      py      :     0.010131
      dz2     :     0.002133  d :     0.038462
      dxz     :     0.010846
      dyz     :     0.009733
      dx2y2   :     0.012940
      dxy     :     0.002810
  2 H s       :     0.749360  s :     0.749360
      pz      :     0.060619  p :     0.106075
      px      :     0.033112
      py      :     0.012344
      dz2     :     0.002659  d :     0.018275
      dxz     :     0.000530
      dyz     :     0.007894
      dx2y2   :     0.002175
      dxy     :     0.005017
  3 O s       :     4.000832  s :     4.000832
      pz      :     1.731589  p :     4.493682
      px      :     1.317948
      py      :     1.444146
      dz2     :     0.001728  d :     0.007661
      dxz     :     0.003010
      dyz     :     0.001021
      dx2y2   :     0.000749
      dxy     :     0.001153
      f0      :     0.000054  f :    -0.000235
      f+1     :     0.000019
      f-1     :     0.000000
      f+2     :    -0.000001
      f-2     :    -0.000083
      f+3     :    -0.000263
      f-3     :     0.000039
  4 H s       :     0.586593  s :     0.586593
      pz      :     0.050439  p :     0.134318
      px      :     0.041962
      py      :     0.041917
      dz2     :     0.000787  d :     0.022782
      dxz     :     0.004943
      dyz     :     0.005854
      dx2y2   :     0.007414
      dxy     :     0.003784
  5 H s       :     0.580752  s :     0.580752
      pz      :     0.028899  p :     0.102320
      px      :     0.030058
      py      :     0.043363
      dz2     :     0.007892  d :     0.027898
      dxz     :     0.007575
      dyz     :     0.001094
      dx2y2   :     0.003959
      dxy     :     0.007378
  6 O s       :     3.985391  s :     3.985391
      pz      :     1.581580  p :     4.459470
      px      :     1.693111
      py      :     1.184779
      dz2     :     0.000269  d :     0.004977
      dxz     :     0.005164
      dyz     :     0.004694
      dx2y2   :    -0.006471
      dxy     :     0.001319
      f0      :     0.000025  f :    -0.000427
      f+1     :     0.000025
      f-1     :    -0.000224
      f+2     :     0.000002
      f-2     :     0.000047
      f+3     :     0.000012
      f-3     :    -0.000313
  7 H s       :     0.568853  s :     0.568853
      pz      :     0.008307  p :     0.057662
      px      :     0.028025
      py      :     0.021330
      dz2     :     0.013568  d :     0.046169
      dxz     :     0.001502
      dyz     :     0.007016
      dx2y2   :     0.014676
      dxy     :     0.009407
  8 H s       :     0.761117  s :     0.761117
[...]
    75. A(H  10,O   9,H  14)           88.76 -0.002915    0.36     89.12   
    76. A(O   3,O   9,H  10)           95.06 -0.000015    0.79     95.85   
    77. A(H  13,O   9,H  16)          134.01  0.001814   -0.76    133.25   
    78. A(H  10,O   9,H  13)          113.59 -0.004238    0.25    113.84   
    79. A(H  11,O   9,H  13)           48.96  0.001002    0.07     49.03   
    80. A(H  10,O   9,H  11)          142.28 -0.004027    0.54    142.82   
    81. A(H   1,H  10,H  14)          103.06 -0.007184    0.93    103.99   
    82. A(O   0,H  10,H  14)          120.25 -0.007133    0.60    120.85   
    83. A(O   9,H  10,H  16)           62.14 -0.006624    0.81     62.96   
    84. A(O   9,H  10,H  14)           61.50  0.001584   -0.29     61.21   
    85. A(O   0,H  10,H   1)           18.41 -0.000417   -0.31     18.10   
    86. A(H   1,H  10,O   9)          164.00 -0.006095    0.49    164.49   
    87. A(H   1,H  10,H  16)          122.66  0.009770   -0.88    121.77   
    88. A(O   0,H  10,H  16)          115.41  0.010858   -0.61    114.80   
    89. A(H  14,H  10,H  16)           81.66  0.000369   -0.82     80.83   
    90. A(O   6,H  11,H  13)           83.47  0.002021    0.34     83.80   
    91. A(O   6,H  11,O   9)          167.75  0.001290   -0.26    167.49   
    92. A(H  13,H  11,H  14)           48.10 -0.001780   -0.18     47.92   
    93. A(O   9,H  11,H  14)           58.11 -0.001473    0.11     58.23   
    94. A(O   6,H  11,H   7)           22.67  0.002854   -0.02     22.65   
    95. A(H   7,H  11,H  14)          150.43  0.002393    0.31    150.74   
    96. A(O   9,H  11,H  13)          103.60 -0.003086   -0.24    103.36   
    97. A(H   7,H  11,H  13)          102.52  0.004321    0.44    102.96   
    98. A(H   7,H  11,O   9)          145.64 -0.001475   -0.18    145.46   
    99. A(O   6,H  11,H  14)          130.94  0.000209    0.10    131.04   
   100. A(H  13,O  12,H  14)          109.84  0.000265   -0.99    108.86   
   101. A(O   9,H  13,O  12)           85.08 -0.001117    0.99     86.07   
   102. A(O   6,H  13,H  11)           61.43 -0.001692   -0.12     61.31   
   103. A(O   6,H  13,O   9)           88.51  0.000438    0.03     88.54   
   104. A(O   6,H  13,O  12)          172.97 -0.000662    1.02    173.99   
   105. A(O   9,H  13,H  11)           27.44  0.002084    0.17     27.61   
   106. A(H  11,H  13,O  12)          112.37  0.001010    1.13    113.50   
   107. A(H  10,H  14,O  12)          115.80 -0.004153   -0.01    115.79   
   108. A(O   9,H  14,O  12)          110.28 -0.001262    0.02    110.30   
   109. A(H  10,H  14,H  11)           55.56  0.000264    0.08     55.63   
   110. A(O   9,H  14,H  11)           29.27 -0.000252    0.04     29.31   
   111. A(H  11,H  14,O  12)           85.94 -0.000389    0.14     86.08   
   112. A(O   9,H  14,H  10)           29.74  0.001331   -0.07     29.67   
   113. A(H  16,O  15,H  17)          114.38  0.000682   -1.45    112.92   
   114. A(H  10,H  16,O  15)          136.54  0.055270   -1.05    135.49   
   115. A(O   9,H  16,H  10)           33.85 -0.000403    0.29     34.14   
   116. D(H  10,H   1,O   0,H   2)   -143.28 -0.004068    0.53   -142.74   
   117. D(H   7,H   4,O   3,O   9)    -81.23  0.000704   -0.41    -81.64   
   118. D(H   7,H   4,O   3,H   5)   -113.62 -0.001240   -0.17   -113.79   
   119. D(H   7,H   5,O   3,H   4)    108.39  0.000355   -0.24    108.16   
   120. D(H   7,H   5,O   3,O   9)     74.37 -0.001440   -0.31     74.06   
   121. D(O   3,H   7,O   6,H  11)      5.68  0.001100    0.21      5.89   
   122. D(H   5,H   7,H   4,O   3)     30.85 -0.003421    0.18     31.04   
   123. D(H  11,H   7,H   4,O   3)     99.65 -0.002222   -0.37     99.27   
   124. D(O   6,H   7,H   5,O   3)   -145.92 -0.000296   -0.62   -146.54   
   125. D(H  11,H   7,O   3,H   4)    -65.18 -0.000919   -0.33    -65.51   
   126. D(H   4,H   7,O   6,H  13)     -2.11 -0.002626   -0.11     -2.22   
   127. D(H  11,H   7,O   6,H  13)     18.50 -0.000138   -0.38     18.11   
   128. D(O   6,H   7,O   3,H   5)     45.81 -0.000761   -1.23     44.58   
   129. D(H  11,H   7,O   3,O   9)     -2.93 -0.000273   -0.17     -3.10   
   130. D(H   5,H   7,O   3,O   9)    -55.65 -0.000663    0.81    -54.84   
   131. D(O   6,H   7,O   3,O   9)     -9.84 -0.001424   -0.42    -10.26   
   132. D(H  11,H   7,H   5,O   3)   -114.13 -0.001034   -1.11   -115.24   
   133. D(H   4,H   7,O   6,H   8)    174.60 -0.002193    0.24    174.84   
   134. D(H  11,H   7,O   6,H   8)   -164.79  0.000295   -0.03   -164.82   
   135. D(H   5,H   7,O   6,H  13)     40.71  0.000320   -0.83     39.88   
   136. D(H   4,H   7,O   6,H  11)    -20.61 -0.002488    0.27    -20.33   
   137. D(H   4,H   7,O   3,O   9)     62.25  0.000646    0.16     62.41   
   138. D(H   5,H   7,O   3,H   4)   -117.90 -0.001309    0.65   -117.25   
   139. D(H   4,H   7,O   3,H   5)    117.90  0.001309   -0.65    117.25   
   140. D(H   4,H   7,H   5,O   3)    -34.21 -0.002427   -0.46    -34.67   
   141. D(O   3,H   7,O   6,H  13)     24.18  0.000961   -0.17     24.00   
   142. D(H  11,H   7,O   3,H   5)     52.71  0.000390   -0.97     51.74   
   143. D(H   5,H   7,O   6,H  11)     22.21  0.000459   -0.45     21.77   
   144. D(O   3,H   7,O   6,H   8)   -159.11  0.001395    0.18   -158.93   
   145. D(O   6,H   7,H   4,O   3)    127.32  0.000410   -0.76    126.56   
   146. D(H   5,H   7,O   6,H   8)   -142.58  0.000754   -0.48   -143.06   
   147. D(O   6,H   7,O   3,H   4)    -72.09 -0.002070   -0.58    -72.67   
   148. D(H  14,O   9,O   3,H   5)   -150.93 -0.004062    2.71   -148.22   
   149. D(O   3,O   9,O   0,H   1)    138.35  0.003498    0.30    138.66   
   150. D(H  16,O   9,O   3,H   7)    137.12 -0.002125    0.98    138.09   
   151. D(H  11,O   9,O   3,H   5)   -107.07 -0.001243   -0.24   -107.32   
   152. D(H  16,O   9,O   3,H   5)     24.05 -0.003673    0.38     24.43   
   153. D(H  16,O   9,O   3,H   4)   -120.80 -0.002403    0.64   -120.15   
   154. D(H  11,O   9,O   3,H   7)      6.00  0.000304    0.35      6.35   
   155. D(H  13,O   9,O   3,H   5)   -132.03 -0.001024    0.27   -131.76   
   156. D(H  10,O   9,O   3,H   7)   -137.74  0.004815    0.05   -137.69   
   157. D(H  10,O   9,O   3,H   4)    -35.66  0.004537   -0.28    -35.94   
   158. D(H  11,O   9,O   3,H   4)    108.08  0.000027    0.02    108.10   
   159. D(H  14,O   9,O   3,H   7)    -37.85 -0.002515    3.31    -34.55   
   160. D(O   3,O   9,O   0,H   2)   -109.38  0.000532    0.03   -109.35   
   161. D(H  13,O   9,O   3,H   7)    -18.95  0.000523    0.86    -18.09   
   162. D(H  10,O   9,O   3,H   5)    109.19  0.003268   -0.54    108.65   
   163. D(H  14,O   9,O   0,H   2)     90.98 -0.000458   -0.76     90.22   
   164. D(H  14,O   9,O   3,H   4)     64.23 -0.002793    2.97     67.20   
   165. D(H  11,O   9,O   0,H   2)   -174.44 -0.008108   -0.23   -174.67   
   166. D(H  13,O   9,O   0,H   1)     18.50  0.003122   -0.38     18.12   
   167. D(H  16,O   9,O   0,H   1)   -116.92 -0.001797    0.98   -115.93   
   168. D(H  14,O   9,O   0,H   1)    -21.29  0.002507   -0.48    -21.77   
   169. D(H  13,O   9,O   3,H   4)     83.13  0.000245    0.53     83.66   
   170. D(H  16,O   9,O   0,H   2)     -4.65 -0.004763    0.70     -3.94   
   171. D(H  11,O   9,O   0,H   1)     73.29 -0.005142    0.05     73.33   
   172. D(H  13,O   9,O   0,H   2)    130.77  0.000156   -0.66    130.11   
   173. D(O   9,H  10,H   1,O   0)    174.64  0.006828    0.89    175.54   
   174. D(H  14,H  10,O   0,H   2)     89.02  0.003725   -0.75     88.27   
   175. D(H  14,H  10,O   0,H   1)    -22.45  0.004657   -0.41    -22.85   
   176. D(H  16,H  10,O   0,H   2)     -6.20  0.000207    0.37     -5.83   
   177. D(H   1,H  10,O   0,H   2)    111.47 -0.000932   -0.34    111.13   
   178. D(H  16,H  10,O   0,H   1)   -117.67  0.001139    0.71   -116.96   
   179. D(H  14,H  10,O   9,O   3)    159.49  0.001402    0.76    160.25   
   180. D(H  14,H  10,O   9,H  16)    -95.75 -0.003511    1.42    -94.33   
   181. D(H   1,H  10,O   9,H  16)   -111.79 -0.007841    0.09   -111.70   
   182. D(H  14,H  10,O   9,H  11)     92.67 -0.001106    0.18     92.86   
   183. D(H  16,H  10,O   9,H  13)    135.76  0.004430   -1.42    134.34   
   184. D(H  16,H  10,O   9,H  11)   -171.58  0.002406   -1.24   -172.81   
   185. D(H   1,H  10,O   9,O   3)    143.45 -0.002928   -0.57    142.88   
   186. D(H   1,H  10,O   9,H  14)    -16.04 -0.004330   -1.33    -17.37   
   187. D(H   1,H  10,O   9,H  13)     23.97 -0.003412   -1.34     22.64   
   188. D(H  16,H  10,O   9,O   3)   -104.76  0.004913   -0.66   -105.42   
   189. D(H  16,H  10,O   9,H  14)     95.75  0.003511   -1.42     94.33   
   190. D(H  14,H  10,O   9,H  13)     40.01  0.000918   -0.00     40.01   
   191. D(H   1,H  10,O   9,H  11)     76.63 -0.005436   -1.15     75.49   
   192. D(H  14,H  10,H   1,O   0)    160.21  0.003159   -0.30    159.91   
   193. D(H  16,H  10,H   1,O   0)     71.83  0.005184    0.26     72.09   
   194. D(H   7,H  11,O   9,O   3)    -10.89 -0.000284   -0.55    -11.44   
   195. D(H   7,H  11,O   9,H  14)    154.83  0.000244    0.66    155.49   
   196. D(H   7,H  11,O   9,H  16)   -105.00  0.005917   -1.19   -106.19   
   197. D(H   7,H  11,O   9,H  10)     63.47  0.003089    0.27     63.74   
   198. D(O   6,H  11,O   9,O   3)    -25.16 -0.002756   -1.04    -26.20   
   199. D(O   6,H  11,O   9,H  14)    140.56 -0.002228    0.16    140.73   
   200. D(O   6,H  11,O   9,H  13)    124.24 -0.001500   -0.27    123.96   
   201. D(O   6,H  11,O   9,H  16)   -119.26  0.003444   -1.68   -120.94   
   202. D(O   6,H  11,O   9,H  10)     49.21  0.000616   -0.23     48.98   
   203. D(H  14,H  11,O   9,H  13)    -16.33  0.000728   -0.44    -16.77   
   204. D(H  14,H  11,O   9,H  16)    100.17  0.005672   -1.85     98.33   
   205. D(H  14,H  11,O   9,H  10)    -91.36  0.002844   -0.39    -91.75   
   206. D(H  13,H  11,O   9,H  14)     16.33 -0.000728    0.44     16.77   
   207. D(O   6,H  11,H   7,H   5)   -155.23 -0.000537   -0.11   -155.34   
   208. D(H  13,H  11,O   9,H  10)    -75.03  0.002116    0.05    -74.98   
   209. D(O   6,H  11,H   7,H   4)    159.80 -0.002327    0.14    159.94   
   210. D(O   6,H  11,H   7,O   3)   -175.72  0.000737    0.20   -175.52   
   211. D(H  14,H  11,H   7,H   5)    165.51 -0.003944    1.20    166.71   
   212. D(H  14,H  11,H   7,H   4)    120.55 -0.005734    1.45    122.00   
   213. D(H  14,H  11,H   7,O   3)    145.03 -0.002670    1.51    146.54   
   214. D(H  14,H  11,H   7,O   6)    -39.26 -0.003407    1.31    -37.95   
   215. D(H  13,H  11,H   7,H   5)    171.28 -0.001488    0.39    171.67   
   216. D(H  13,H  11,H   7,H   4)    126.31 -0.003278    0.64    126.96   
   217. D(H  13,H  11,O   9,H  16)    116.50  0.004944   -1.41    115.09   
   218. D(O   9,H  11,H   7,H   5)     32.56 -0.000955    0.32     32.89   
   219. D(O   9,H  11,H   7,O   3)     12.08  0.000319    0.63     12.71   
   220. D(H   7,H  11,O   6,H  13)   -147.17  0.000158   -0.58   -147.75   
   221. D(H  13,H  11,O   9,O   3)   -149.39 -0.001256   -0.77   -150.16   
   222. D(H   7,H  11,O   6,H   8)    142.09 -0.000652    0.53    142.61   
   223. D(H  14,H  11,O   6,H  13)      8.42  0.000099    0.33      8.75   
   224. D(O   9,H  11,H   7,O   6)   -172.21 -0.000418    0.43   -171.77   
   225. D(H  14,H  11,O   9,O   3)   -165.72 -0.000528   -1.21   -166.93   
   226. D(H  14,H  11,O   6,H   8)    -62.33 -0.000712    1.44    -60.89   
   227. D(H  14,H  11,O   6,H   7)    155.58 -0.000060    0.92    156.50   
   228. D(O   9,H  11,H   7,H   4)    -12.41 -0.002745    0.58    -11.83   
   229. D(H  13,H  11,O   6,H   8)    -70.74 -0.000810    1.11    -69.64   
   230. D(H  13,H  11,O   6,H   7)    147.17 -0.000158    0.58    147.75   
   231. D(H  13,H  11,H   7,O   3)    150.80 -0.000214    0.70    151.50   
   232. D(O   9,H  11,O   6,H  13)   -126.02  0.002112    0.29   -125.73   
   233. D(H   7,H  11,O   9,H  13)    138.50  0.000973    0.22    138.72   
   234. D(O   9,H  11,O   6,H   8)    163.24  0.001301    1.40    164.63   
   235. D(H  13,H  11,H   7,O   6)    -33.49 -0.000950    0.50    -32.99   
   236. D(O   9,H  11,O   6,H   7)     21.15  0.001953    0.87     22.02   
   237. D(O   9,H  13,O   6,H  11)      4.67 -0.000094    0.14      4.81   
   238. D(O   9,H  13,O   6,H   8)    157.07 -0.000462    0.12    157.19   
   239. D(O   9,H  13,O   6,H   7)    -26.71  0.000025    0.53    -26.18   
   240. D(O  12,H  13,O   6,H  11)     29.11 -0.001609    1.98     31.08   
   241. D(O  12,H  13,O   6,H   8)   -178.50 -0.001977    1.96   -176.53   
   242. D(O  12,H  13,O   6,H   7)     -2.28 -0.001490    2.37      0.10   
   243. D(O   6,H  13,O  12,H  14)    -49.04 -0.001603   -1.83    -50.87   
   244. D(O   9,H  13,O  12,H  14)    -24.51 -0.003075   -0.01    -24.52   
   245. D(O   6,H  13,H  11,H   7)     12.36  0.001762   -0.19     12.17   
   246. D(O   6,H  13,H  11,H  14)   -171.46  0.000313    0.37   -171.09   
   247. D(O   9,H  13,H  11,H   7)   -157.47  0.000837    0.06   -157.42   
   248. D(O   9,H  13,H  11,O   6)   -169.83 -0.000925    0.25   -169.59   
   249. D(O   9,H  13,H  11,H  14)     18.71 -0.000612    0.61     19.32   
   250. D(O  12,H  13,H  11,H   7)   -163.95  0.001948   -0.49   -164.44   
   251. D(O  12,H  13,H  11,O   6)   -176.31  0.000187   -0.30   -176.61   
   252. D(O  12,H  13,H  11,H  14)     12.23  0.000500    0.06     12.30   
   253. D(O  12,H  13,H  11,O   9)     -6.47  0.001111   -0.55     -7.02   
   254. D(O   6,H  13,O   9,O   3)     23.21  0.000195   -0.94     22.27   
   255. D(O   6,H  13,O   9,H  14)   -165.99 -0.000338    0.47   -165.52   
   256. D(O   6,H  13,O   9,H  16)   -123.82  0.006142   -1.82   -125.64   
   257. D(O   6,H  13,O   9,H  11)     -8.92  0.000956   -0.20     -9.12   
   258. D(O   6,H  13,O   9,H  10)    130.92 -0.001399    0.28    131.20   
   259. D(H  11,H  13,O   9,O   3)     32.13 -0.000760   -0.74     31.39   
   260. D(H  11,H  13,O   9,H  14)   -157.07 -0.001293    0.67   -156.40   
   261. D(H  11,H  13,O   9,H  16)   -114.90  0.005186   -1.62   -116.52   
   262. D(H  11,H  13,O   9,H  10)    139.84 -0.002355    0.48    140.32   
   263. D(O  12,H  13,O   9,O   3)   -153.88  0.000304   -1.18   -155.06   
   264. D(O  12,H  13,O   9,H  14)     16.93 -0.000229    0.23     17.16   
   265. D(O   6,H  13,H  11,O   9)    169.83  0.000925   -0.25    169.59   
   266. D(O  12,H  13,O   9,H  16)     59.10  0.006250   -2.06     57.04   
   267. D(O  12,H  13,O   9,H  11)    173.99  0.001064   -0.44    173.56   
   268. D(O  12,H  13,O   9,H  10)    -46.17 -0.001291    0.04    -46.13   
   269. D(H  11,H  13,O  12,H  14)    -21.52 -0.003372    0.25    -21.27   
   270. D(H  11,H  13,O   6,H   8)    152.40 -0.000368   -0.01    152.38   
   271. D(H  11,H  13,O   6,H   7)    -31.38  0.000119    0.39    -30.99   
   272. D(H  11,H  14,O  12,H  13)     15.81  0.001317   -0.41     15.39   
   273. D(H  10,H  14,O  12,H  13)     64.19  0.003542   -0.26     63.93   
   274. D(O   9,H  14,O  12,H  13)     32.35  0.002143   -0.18     32.17   
   275. D(H  10,H  14,H  11,O   6)   -148.13  0.002409   -0.14   -148.28   
   276. D(H  10,H  14,H  11,H  13)   -136.87  0.002906    0.37   -136.50   
   277. D(H  10,H  14,H  11,O   9)     21.59  0.002963   -0.34     21.25   
   278. D(O   9,H  14,H  11,O   6)   -169.73 -0.000554    0.20   -169.53   
   279. D(O   9,H  14,H  11,H  13)   -158.46 -0.000057    0.71   -157.75   
   280. D(O  12,H  14,H  11,H   7)     -4.00  0.000851   -0.89     -4.89   
   281. D(O  12,H  14,H  11,H  13)    -11.57 -0.002467    0.18    -11.40   
   282. D(O  12,H  14,H  11,O   9)    146.89 -0.002410   -0.54    146.35   
   283. D(H  11,H  14,H  10,H  16)    -84.02  0.005759   -1.01    -85.04   
   284. D(H  11,H  14,H  10,H   1)    154.25 -0.004549   -0.02    154.23   
   285. D(H  11,H  14,H  10,O   0)    161.36 -0.006319    0.02    161.38   
   286. D(H  11,H  14,H  10,O   9)    -21.27 -0.001832    0.27    -20.99   
   287. D(O   9,H  14,H  10,H  16)    -62.76  0.007592   -1.29    -64.04   
   288. D(O   9,H  14,H  10,H   1)    175.52 -0.002717   -0.30    175.22   
   289. D(O   9,H  14,H  10,O   0)   -177.37 -0.004487   -0.25   -177.63   
   290. D(O  12,H  14,H  10,H  16)   -148.75  0.002014   -1.30   -150.05   
   291. D(O  12,H  14,H  10,H   1)     89.53 -0.008295   -0.31     89.22   
   292. D(O  12,H  14,H  10,O   0)     96.64 -0.010065   -0.27     96.37   
   293. D(O  12,H  14,H  10,O   9)    -85.99 -0.005578   -0.01    -86.00   
   294. D(H  11,H  14,O   9,O   3)     41.25  0.002759   -2.72     38.53   
   295. D(H  11,H  14,O   9,H  13)     17.11 -0.000648    0.52     17.63   
   296. D(H  11,H  14,O   9,H  16)   -133.87  0.002533   -0.44   -134.31   
   297. D(O  12,H  14,H  11,O   6)    -22.84 -0.002964   -0.34    -23.18   
   298. D(H  11,H  14,O   9,H  10)    142.28 -0.004128    0.55    142.83   
   299. D(H  10,H  14,O   9,O   3)   -101.03  0.006886   -3.27   -104.30   
   300. D(H  10,H  14,O   9,H  13)   -125.17  0.003479   -0.03   -125.20   
   301. D(O   9,H  14,H  11,H   7)   -150.89  0.003262   -0.36   -151.25   
   302. D(H  10,H  14,O   9,H  16)     83.85  0.006660   -0.99     82.86   
   303. D(H  10,H  14,O   9,H  11)   -142.28  0.004128   -0.55   -142.83   
   304. D(O  12,H  14,O   9,O   3)      5.74  0.000474   -3.31      2.42   
   305. D(H  10,H  14,H  11,H   7)   -129.30  0.006224   -0.70   -129.99   
   306. D(O  12,H  14,O   9,H  13)    -18.41 -0.002933   -0.07    -18.48   
   307. D(O  12,H  14,O   9,H  16)   -169.39  0.000248   -1.03   -170.42   
   308. D(O  12,H  14,O   9,H  11)    -35.52 -0.002285   -0.59    -36.11   
   309. D(O  12,H  14,O   9,H  10)    106.76 -0.006413   -0.04    106.72   
   310. D(H  17,O  15,O   9,O   3)    142.34  0.013473   -0.06    142.28   
   311. D(H  17,O  15,O   9,H  14)    -38.10  0.005947   -0.65    -38.75   
   312. D(H  17,O  15,O   9,H  13)    -64.10 -0.016386    1.18    -62.92   
   313. D(H  17,O  15,O   9,H  11)   -137.43  0.003847    0.60   -136.83   
   314. D(H  17,O  15,O   9,H  10)     49.77  0.004685   -0.49     49.28   
   315. D(H  10,H  16,O  15,H  17)     50.33 -0.001520   -0.78     49.55   
   316. D(O   9,H  16,H  10,H  14)     62.10  0.000854    0.38     62.48   
   317. D(O   9,H  16,H  10,H   1)    162.31 -0.007780    0.83    163.13   
   318. D(O   9,H  16,H  10,O   0)   -178.29 -0.005805    0.41   -177.88   
   319. D(O  15,H  16,H  10,H  14)   -116.50 -0.002972    0.76   -115.74   
   320. D(O  15,H  16,H  10,H   1)    -16.29 -0.011606    1.20    -15.09   
   321. D(O  15,H  16,H  10,O   0)      3.11 -0.009631    0.79      3.90   
   322. D(O  15,H  16,H  10,O   9)   -178.59 -0.003827    0.38   -178.22   
   323. D(H  10,H  16,O   9,O   3)     93.64  0.002315    0.55     94.19   
   324. D(H  10,H  16,O   9,H  14)    -88.16  0.002603   -0.16    -88.32   
   325. D(H  10,H  16,O   9,H  13)   -117.25 -0.001837    1.35   -115.90   
   326. D(H  10,H  16,O   9,H  11)    172.94 -0.002271    1.03    173.97   
    ----------------------------------------------------------------------------




    ----------------------------------------------------------------------------
                                   ERROR !!!
       The optimization did not converge but reached the maximum 
       number of optimization cycles.
       As a subsequent Frequencies calculation has been requested
       ORCA will abort at this point of the run.
       Please restart the calculation with the lowest energy geometry and/or
       a larger maxiter for the geometry optimization.
    ----------------------------------------------------------------------------


[file orca_main/run.cpp, line 10680]: ORCA finished with error return - aborting the run
[file orca_main/run.cpp, line 10680]: ORCA finished with error return - aborting the run
