
                                 *****************
                                 * O   R   C   A *
                                 *****************

           --- An Ab Initio, DFT and Semiempirical electronic structure package ---

                  #######################################################
                  #                        -***-                        #
                  #          Department of theory and spectroscopy      #
                  #               Directorship: Frank Neese             #
                  #        Max Planck Institute fuer Kohlenforschung    #
                  #                Kaiser Wilhelm Platz 1               #
                  #                 D-45470 Muelheim/Ruhr               #
                  #                      Germany                        #
                  #                                                     #
                  #                  All rights reserved                #
                  #                        -***-                        #
                  #######################################################


                         Program Version 4.2.0 -  RELEASE  -


 With contributions from (in alphabetic order):
   Daniel Aravena         : Magnetic Suceptibility
   Michael Atanasov       : Ab Initio Ligand Field Theory (pilot matlab implementation)
   Alexander A. Auer      : GIAO ZORA, VPT2
   Ute Becker             : Parallelization
   Giovanni Bistoni       : ED, misc. LED, open-shell LED, HFLED
   Martin Brehm           : Molecular dynamics
   Dmytro Bykov           : SCF Hessian
   Vijay G. Chilkuri      : MRCI spin determinant printing, contributions to CSF-ICE
   Dipayan Datta          : RHF DLPNO-CCSD density
   Achintya Kumar Dutta   : EOM-CC, STEOM-CC
   Dmitry Ganyushin       : Spin-Orbit,Spin-Spin,Magnetic field MRCI
   Miquel Garcia          : C-PCM Hessian, Gaussian charge scheme
   Yang Guo               : DLPNO-NEVPT2, CIM, IAO-localization
   Andreas Hansen         : Spin unrestricted coupled pair/coupled cluster methods
   Benjamin Helmich-Paris : CASSCF linear response (MC-RPA)
   Lee Huntington         : MR-EOM, pCC
   Robert Izsak           : Overlap fitted RIJCOSX, COSX-SCS-MP3, EOM
   Christian Kollmar      : KDIIS, OOCD, Brueckner-CCSD(T), CCSD density
   Simone Kossmann        : Meta GGA functionals, TD-DFT gradient, OOMP2, MP2 Hessian
   Martin Krupicka        : AUTO-CI
   Lucas Lang             : DCDCAS
   Dagmar Lenk            : GEPOL surface, SMD
   Dimitrios Liakos       : Extrapolation schemes; Compound Job, initial MDCI parallelization
   Dimitrios Manganas     : Further ROCIS development; embedding schemes
   Dimitrios Pantazis     : SARC Basis sets
   Taras Petrenko         : DFT Hessian,TD-DFT gradient, ASA, ECA, R-Raman, ABS, FL, XAS/XES, NRVS
   Peter Pinski           : DLPNO-MP2, DLPNO-MP2 Gradient
   Christoph Reimann      : Effective Core Potentials
   Marius Retegan         : Local ZFS, SOC
   Christoph Riplinger    : Optimizer, TS searches, QM/MM, DLPNO-CCSD(T), (RO)-DLPNO pert. Triples
   Tobias Risthaus        : Range-separated hybrids, TD-DFT gradient, RPA, STAB
   Michael Roemelt        : Original ROCIS implementation
   Masaaki Saitow         : Open-shell DLPNO-CCSD energy and density
   Barbara Sandhoefer     : DKH picture change effects
   Avijit Sen             : IP-ROCIS
   Kantharuban Sivalingam : CASSCF convergence, NEVPT2, FIC-MRCI
   Bernardo de Souza      : ESD, SOC TD-DFT
   Georgi Stoychev        : AutoAux, RI-MP2 NMR
   Willem Van den Heuvel  : Paramagnetic NMR
   Boris Wezisla          : Elementary symmetry handling
   Frank Wennmohs         : Technical directorship


 We gratefully acknowledge several colleagues who have allowed us to
 interface, adapt or use parts of their codes:
   Stefan Grimme, W. Hujo, H. Kruse,             : VdW corrections, initial TS optimization,
                  C. Bannwarth                     DFT functionals, gCP, sTDA/sTD-DF
   Ed Valeev, F. Pavosevic, A. Kumar             : LibInt (2-el integral package), F12 methods
   Garnet Chan, S. Sharma, J. Yang, R. Olivares  : DMRG
   Ulf Ekstrom                                   : XCFun DFT Library
   Mihaly Kallay                                 : mrcc  (arbitrary order and MRCC methods)
   Andreas Klamt, Michael Diedenhofen            : otool_cosmo (COSMO solvation model)
   Jiri Pittner, Ondrej Demel                    : Mk-CCSD
   Frank Weinhold                                : gennbo (NPA and NBO analysis)
   Christopher J. Cramer and Donald G. Truhlar   : smd solvation model
   Lars Goerigk                                  : TD-DFT with DH, B97 family of functionals
   V. Asgeirsson, H. Jonsson                     : NEB implementation
   FAccTs GmbH                                   : IRC, NEB, NEB-TS, Multilevel, MM, QM/MM, CI optimization
   S Lehtola, MJT Oliveira, MAL Marques          : LibXC Library


 Your calculation uses the libint2 library for the computation of 2-el integrals
 For citations please refer to: http://libint.valeyev.net

 Your ORCA version has been built with support for libXC version: 4.2.3
 For citations please refer to: https://tddft.org/programs/libxc/

 This ORCA versions uses:
   CBLAS   interface :  Fast vector & matrix operations
   LAPACKE interface :  Fast linear algebra routines
   SCALAPACK package :  Parallel linear algebra routines


Your calculation utilizes the atom-pairwise dispersion correction
with the Becke-Johnson damping scheme (D3BJ)
Cite in your paper:
S.Grimme, S.Ehrlich, L.Goerigk, J Comput Chem, (2011), 32, 1456–1465 
S.Grimme, J.Antony, S.Ehrlich and H.Krieg, J.Chem.Phys., 132, (2010), 154104 
   

----- Orbital basis set information -----
Your calculation utilizes the basis: aug-cc-pV(T+d)Z 
             Al - Ar: T.H. Dunning, Jr., K. A. Peterson and A. K. Wilson, J. Chem. Phys.
                      114, 9244 (2001)

----- AuxJ basis set information -----
Your calculation utilizes the auxiliary basis: def2/J
   F. Weigend, Phys. Chem. Chem. Phys. 8, 1057 (2006).

================================================================================
                                        WARNINGS
                       Please study these warnings very carefully!
================================================================================


WARNING: Geometry Optimization
  ===> : Switching off AutoStart
         For restart on a previous wavefunction, please use MOREAD

WARNING: The SCAN functional is very grid-sensitive!
         Use at least GRID5 and a higher intacc

INFO   : the flag for use of LIBINT has been found!

================================================================================
                                       INPUT FILE
================================================================================
NAME = 09_H2O_6_prism.in
|  1> #
|  2> # 09_H2O_6_prism scanfunc/aug-cc-pvt(+d)z
|  3> #
|  4> ! scanfunc d3bj aug-cc-pvt(+d)z def2/j grid4 nofinalgrid opt xyzfile numfreq
|  5> 
|  6> *xyz 0 1
|  7> O	-1.511782	-0.232325	1.434522
|  8> H	-0.6139	-0.631798	1.542476
|  9> H	-2.015087	-0.484249	2.21021
| 10> O	-1.744551	-0.350365	-1.322141
| 11> H	-1.89002	-0.475498	-0.368433
| 12> H	-2.508917	-0.726304	-1.761973
| 13> O	-0.568902	2.010658	-0.079448
| 14> H	-0.9578	1.52123	0.658817
| 15> H	-0.991476	1.598457	-0.84212
| 16> O	0.972064	-1.194842	1.413465
| 17> H	0.986177	-1.536208	0.500658
| 18> H	1.544338	-0.420911	1.334663
| 19> O	0.983916	-1.359847	-1.372465
| 20> H	0.077993	-1.073694	-1.552782
| 21> H	1.480193	-0.535792	-1.283351
| 22> O	2.003223	1.063257	-0.092296
| 23> H	1.144078	1.530799	-0.098089
| 24> H	2.67269	1.741694	-0.193152
| 25> *
| 26> 
| 27> %maxcore 5000
| 28> 
| 29> %pal
| 30> nprocs 24
| 31> end
| 32> 
| 33> 
| 34>                          ****END OF INPUT****
================================================================================

                       *****************************
                       * Geometry Optimization Run *
                       *****************************

Geometry optimization settings:
Update method            Update   .... BFGS
Choice of coordinates    CoordSys .... Z-matrix Internals
Initial Hessian          InHess   .... Almoef's Model

Convergence Tolerances:
Energy Change            TolE     ....  5.0000e-06 Eh
Max. Gradient            TolMAXG  ....  3.0000e-04 Eh/bohr
RMS Gradient             TolRMSG  ....  1.0000e-04 Eh/bohr
Max. Displacement        TolMAXD  ....  4.0000e-03 bohr
RMS Displacement         TolRMSD  ....  2.0000e-03 bohr
Strict Convergence                ....  False
------------------------------------------------------------------------------
                        ORCA OPTIMIZATION COORDINATE SETUP
------------------------------------------------------------------------------

The optimization will be done in new redundant internal coordinates
Making redundant internal coordinates   ...  (new redundants) done
Evaluating the initial hessian          ...  (Almloef) done
Evaluating the coordinates              ...  done
Calculating the B-matrix                .... done
Calculating the G-matrix                .... done
Diagonalizing the G-matrix              .... done
The first mode is                       ....  371
The number of degrees of freedom        ....   48

    -----------------------------------------------------------------
                    Redundant Internal Coordinates


    -----------------------------------------------------------------
         Definition                    Initial Value    Approx d2E/dq
    -----------------------------------------------------------------
      1. B(H   1,O   0)                  0.9886         0.468016   
      2. B(H   2,O   0)                  0.9584         0.523079   
      3. B(H   4,O   0)                  1.8582         0.019186   
      4. B(H   4,O   3)                  0.9728         0.496036   
      5. B(H   4,H   1)                  2.3031         0.000800   
      6. B(H   5,O   3)                  0.9587         0.522513   
      7. B(H   7,H   4)                  2.4313         0.000499   
      8. B(H   7,H   1)                  2.3526         0.000667   
      9. B(H   7,O   0)                  1.9959         0.011568   
     10. B(H   7,O   6)                  0.9674         0.506056   
     11. B(H   8,H   4)                  2.3093         0.000782   
     12. B(H   8,O   6)                  0.9644         0.511542   
     13. B(H   8,O   3)                  2.1437         0.006721   
     14. B(O   9,H   1)                  1.6879         0.035866   
     15. B(H  10,O   9)                  0.9747         0.492709   
     16. B(H  10,H   1)                  2.1127         0.001610   
     17. B(H  11,H   1)                  2.1785         0.001265   
     18. B(H  11,O   9)                  0.9658         0.509085   
     19. B(O  12,H  10)                  1.8814         0.017616   
     20. B(H  13,H  10)                  2.2925         0.000832   
     21. B(H  13,H   4)                  2.3735         0.000618   
     22. B(H  13,O   3)                  1.9744         0.012521   
     23. B(H  13,O  12)                  0.9670         0.506751   
     24. B(H  14,H  10)                  2.1042         0.001661   
     25. B(H  14,O  12)                  0.9661         0.508483   
     26. B(O  15,H  11)                  2.1094         0.007624   
     27. B(O  15,H  14)                  2.0613         0.009096   
     28. B(H  16,H   8)                  2.2625         0.000929   
     29. B(H  16,H   7)                  2.2340         0.001031   
     30. B(H  16,O   6)                  1.7790         0.025661   
     31. B(H  16,O  15)                  0.9781         0.486435   
     32. B(H  17,O  15)                  0.9585         0.522917   
     33. A(H   2,O   0,H   7)          133.7319         0.187530   
     34. A(H   2,O   0,H   4)          130.0927         0.199483   
     35. A(H   1,O   0,H   4)          103.7647         0.196736   
     36. A(H   1,O   0,H   7)           98.3581         0.185080   
     37. A(H   4,O   0,H   7)           78.1339         0.135627   
     38. A(H   1,O   0,H   2)          106.4011         0.316661   
     39. A(H   4,H   1,H  10)           92.2664         0.098514   
     40. A(O   0,H   1,H  10)          143.7987         0.138745   
     41. A(H  10,H   1,H  11)           40.8936         0.099554   
     42. A(H   7,H   1,O   9)          114.4518         0.111784   
     43. A(O   9,H   1,H  10)           26.8601         0.116813   
     44. A(H   4,H   1,H   7)           62.9514         0.096794   
     45. A(O   0,H   1,O   9)          168.4624         0.213125   
     46. A(O   0,H   1,H   7)           57.0737         0.129750   
     47. A(O   0,H   1,H  11)          148.2370         0.136099   
     48. A(H   4,H   1,O   9)          118.6751         0.112740   
     49. A(O   9,H   1,H  11)           25.0555         0.115334   
     50. A(H   4,H   1,H  11)          117.5949         0.098008   
     51. A(H   7,H   1,H  10)          108.4971         0.098131   
     52. A(O   0,H   1,H   4)           51.5943         0.131460   
     53. A(H   7,H   1,H  11)           91.1688         0.097645   
     54. A(H   4,O   3,H   8)           87.1308         0.175094   
     55. A(H   5,O   3,H  13)          122.5988         0.189286   
     56. A(H   4,O   3,H  13)          101.8549         0.188112   
     57. A(H   4,O   3,H   5)          106.2671         0.319621   
     58. A(H   8,O   3,H  13)           92.0018         0.126438   
     59. A(H   5,O   3,H   8)          137.6745         0.176114   
     60. A(O   0,H   4,H  13)          110.3870         0.108435   
     61. A(H   7,H   4,H   8)           36.8628         0.096263   
     62. A(O   3,H   4,H  13)           54.4967         0.129578   
     63. A(O   0,H   4,O   3)          154.6816         0.198163   
     64. A(H   7,H   4,H  13)           95.7328         0.095885   
     65. A(O   3,H   4,H   8)           67.9887         0.131802   
     66. A(O   0,H   4,H   1)           24.6410         0.109606   
     67. A(H   1,H   4,H   7)           59.5179         0.096300   
     68. A(H   8,H   4,H  13)           78.5433         0.096620   
     69. A(H   1,H   4,H  13)           86.4159         0.096659   
     70. A(O   0,H   4,H   8)           90.1314         0.109500   
     71. A(H   1,H   4,H   8)           90.8907         0.097079   
     72. A(O   0,H   4,H   7)           53.4534         0.107523   
     73. A(O   3,H   4,H   7)          104.5508         0.127674   
     74. A(H   1,H   4,O   3)          137.6694         0.132023   
     75. A(H   7,O   6,H   8)          102.1882         0.319557   
     76. A(H   8,O   6,H  16)          107.3567         0.206405   
     77. A(H   7,O   6,H  16)          104.9882         0.206119   
     78. A(O   0,H   7,H   1)           24.5682         0.106636   
     79. A(H   1,H   7,O   6)          133.7018         0.130478   
     80. A(O   0,H   7,O   6)          148.5058         0.186795   
     81. A(H   1,H   7,H  16)           89.6360         0.097255   
     82. A(O   0,H   7,H  16)          113.3648         0.108463   
     83. A(O   6,H   7,H  16)           50.2853         0.134775   
     84. A(H   4,H   7,H  16)          102.7743         0.096732   
     85. A(H   1,H   7,H   4)           57.5306         0.096006   
     86. A(O   0,H   7,H   4)           48.4127         0.105519   
     87. A(H   4,H   7,O   6)          104.3119         0.127850   
     88. A(O   3,H   8,O   6)          136.0167         0.175696   
     89. A(O   3,H   8,H  16)          112.2126         0.105810   
     90. A(O   6,H   8,H  16)           48.6350         0.133814   
     91. A(O   3,H   8,H   4)           24.8805         0.105168   
     92. A(H   4,H   8,H  16)          105.8401         0.097357   
     93. A(H   4,H   8,O   6)          113.0860         0.132101   
     94. A(H   1,O   9,H  11)          107.1996         0.215510   
     95. A(H  10,O   9,H  11)          101.2843         0.317917   
     96. A(H   1,O   9,H  10)          101.6553         0.214578   
     97. A(O  12,H  10,H  14)           27.3281         0.112848   
     98. A(H   1,H  10,H  14)          113.1019         0.100226   
     99. A(H   1,H  10,O   9)           51.4846         0.139327   
    100. A(O   9,H  10,H  14)          129.1181         0.139686   
    101. A(H  13,H  10,H  14)           40.3276         0.098668   
    102. A(O  12,H  10,H  13)           24.3306         0.109392   
    103. A(H   1,H  10,H  13)           93.1702         0.098599   
    104. A(O   9,H  10,H  13)          139.6853         0.132341   
    105. A(H   1,H  10,O  12)          116.7377         0.112679   
    106. A(O   9,H  10,O  12)          154.1020         0.195912   
    107. A(H   1,H  11,O   9)           47.7450         0.137004   
    108. A(H   1,H  11,O  15)          110.3754         0.107548   
    109. A(O   9,H  11,O  15)          138.4136         0.178108   
    110. A(H  13,O  12,H  14)          104.2434         0.319316   
    111. A(H  10,O  12,H  14)           89.2840         0.196678   
    112. A(H  10,O  12,H  13)          102.3870         0.196595   
    113. A(H   4,H  13,O  12)          139.3159         0.129774   
    114. A(O   3,H  13,O  12)          162.0699         0.188593   
    115. A(H   4,H  13,H  10)           86.1220         0.096728   
    116. A(O   3,H  13,H  10)          109.5712         0.107876   
    117. A(H  10,H  13,O  12)           53.2824         0.132618   
    118. A(O   3,H  13,H   4)           23.6483         0.106645   
    119. A(H  10,H  14,O  15)           86.4741         0.109534   
    120. A(O  12,H  14,O  15)          147.7081         0.181715   
    121. A(H  10,H  14,O  12)           63.3879         0.140049   
    122. A(H  11,O  15,H  14)           77.8701         0.124834   
    123. A(H  14,O  15,H  17)          131.7227         0.182304   
    124. A(H  14,O  15,H  16)           98.3087         0.180790   
    125. A(H  16,O  15,H  17)          105.9349         0.318643   
    126. A(H  11,O  15,H  17)          136.1515         0.178650   
    127. A(H  11,O  15,H  16)           98.5830         0.177194   
    128. A(H   7,H  16,H   8)           39.0568         0.097897   
    129. A(O   6,H  16,H   8)           24.0083         0.111765   
    130. A(H   8,H  16,O  15)          147.7059         0.133307   
    131. A(O   6,H  16,H   7)           24.7265         0.112310   
    132. A(H   7,H  16,O  15)          145.3191         0.134367   
    133. A(O   6,H  16,O  15)          167.0604         0.205076   
    134. D(O   9,H   1,O   0,H   4)     34.7170         0.390938   
    135. D(H   7,H   1,O   0,H   4)     79.7475         0.390938   
    136. D(H  10,H   1,O   0,H   7)    -75.8291         0.390938   
    137. D(O   9,H   1,O   0,H   7)    -45.0305         0.390938   
    138. D(H   4,H   1,O   0,H   2)    139.7559         0.390938   
    139. D(H  11,H   1,O   0,H   2)   -139.3059         0.390938   
    140. D(H   4,H   1,O   0,H   7)    -79.7475         0.390938   
    141. D(H  10,H   1,O   0,H   4)      3.9184         0.390938   
    142. D(O   9,H   1,O   0,H   2)    174.4729         0.390938   
    143. D(H  11,H   1,O   0,H   4)     80.9382         0.390938   
    144. D(H  11,H   1,O   0,H   7)      1.1907         0.390938   
    145. D(H   7,H   1,O   0,H   2)   -140.4966         0.390938   
    146. D(H  10,H   1,O   0,H   2)    143.6742         0.390938   
    147. D(H   8,H   4,H   1,H   7)     20.3389         0.001510   
    148. D(O   0,H   4,H   1,H   7)    -68.0341         0.001510   
    149. D(H  13,H   4,O   0,H   7)     81.7890         0.001789   
    150. D(O   0,H   4,H   1,H  10)   -177.6851         0.001510   
    151. D(H   8,H   4,O   3,H   5)   -139.1571         0.453874   
    152. D(H   7,H   4,O   3,H   5)   -143.9499         0.453874   
    153. D(H   1,H   4,O   0,H   2)   -125.8907         0.001789   
    154. D(H  13,H   4,O   0,H   2)   -139.9246         0.001789   
    155. D(H   1,H   4,O   3,H   8)    -65.2352         0.453874   
    156. D(H   7,H   4,H   1,O   0)     68.0341         0.001510   
    157. D(O   3,H   4,H   1,O   0)    145.7197         0.001510   
    158. D(H   1,H   4,O   0,H   7)     95.8229         0.001789   
    159. D(O   3,H   4,H   1,H  10)    -31.9654         0.001510   
    160. D(H   8,H   4,O   3,H  13)     91.4449         0.453874   
    161. D(O   3,H   4,O   0,H   1)    -62.4893         0.001789   
    162. D(H   7,H   4,O   3,H   8)     -4.7928         0.453874   
    163. D(O   3,H   4,O   0,H   2)    171.6200         0.001789   
    164. D(H   8,H   4,O   0,H   1)    -91.8501         0.001789   
    165. D(H   7,H   4,O   0,H   1)    -95.8229         0.001789   
    166. D(H  13,H   4,H   1,H  10)    -10.8498         0.001510   
    167. D(H   8,H   4,H   1,O   9)    -84.1669         0.001510   
    168. D(H   7,H   4,O   0,H   2)    138.2864         0.001789   
    169. D(H  13,H   4,O   0,H   1)    -14.0339         0.001789   
    170. D(H  13,H   4,O   3,H   5)    129.3980         0.453874   
    171. D(H   1,H   4,O   3,H  13)     26.2097         0.453874   
    172. D(H   7,H   4,H   1,O   9)   -104.5059         0.001510   
    173. D(H   8,H   4,H   1,H  10)    -89.3120         0.001510   
    174. D(H   7,H   4,H   1,H  11)    -76.0525         0.001510   
    175. D(H  13,H   4,H   1,H  11)     22.7486         0.001510   
    176. D(H   8,H   4,O   0,H   7)      3.9728         0.001789   
    177. D(H   7,H   4,H   1,H  10)   -109.6510         0.001510   
    178. D(H   8,H   4,H   1,O   0)     88.3731         0.001510   
    179. D(H  13,H   4,H   1,H   7)     98.8012         0.001510   
    180. D(H   8,H   4,H   1,H  11)    -55.7136         0.001510   
    181. D(H   8,H   4,O   0,H   2)    142.2592         0.001789   
    182. D(O   3,H   4,H   1,O   9)    -26.8203         0.001510   
    183. D(H   1,H   4,O   3,H   5)    155.6076         0.453874   
    184. D(O   0,H   4,H   1,H  11)   -144.0867         0.001510   
    185. D(H  13,H   4,H   1,O   9)     -5.7047         0.001510   
    186. D(O   0,H   4,H   1,O   9)   -172.5400         0.001510   
    187. D(O   3,H   4,O   0,H   7)     33.3335         0.001789   
    188. D(H  13,H   4,H   1,O   0)    166.8353         0.001510   
    189. D(O   0,H   4,O   3,H   5)   -171.0852         0.453874   
    190. D(H  13,H   4,O   3,H   8)    -91.4449         0.453874   
    191. D(O   3,H   4,H   1,H  11)      1.6331         0.001510   
    192. D(H   7,H   4,O   3,H  13)     86.6521         0.453874   
    193. D(O   3,H   4,H   1,H   7)     77.6856         0.001510   
    194. D(O   0,H   4,O   3,H   8)    -31.9280         0.453874   
    195. D(O   0,H   4,O   3,H  13)     59.5169         0.453874   
    196. D(O   6,H   7,O   0,H   1)     67.0798         0.001597   
    197. D(H  16,H   7,O   6,H   8)    111.9486         0.421007   
    198. D(H   4,H   7,O   6,H   8)     17.0878         0.421007   
    199. D(H   1,H   7,O   6,H  16)    -36.3649         0.421007   
    200. D(H  16,H   7,H   4,O   0)    110.0283         0.001504   
    201. D(H  16,H   7,H   4,H   8)    -63.3399         0.001504   
    202. D(H  16,H   7,H   4,H   1)     81.2578         0.001504   
    203. D(O   0,H   7,O   6,H  16)    -68.3506         0.421007   
    204. D(H  16,H   7,H   4,O   3)    -55.9208         0.001504   
    205. D(O   0,H   7,O   6,H   8)     43.5981         0.421007   
    206. D(H   1,H   7,H   4,H  13)    -82.4150         0.001504   
    207. D(H   4,H   7,O   6,H  16)    -94.8609         0.421007   
    208. D(H   1,H   7,O   6,H   8)     75.5837         0.421007   
    209. D(O   0,H   7,H   4,H   8)   -173.3681         0.001504   
    210. D(O   0,H   7,H   4,H  13)   -111.1855         0.001504   
    211. D(O   0,H   7,H   4,H   1)    -28.7705         0.001504   
    212. D(O   0,H   7,H   4,O   3)   -165.9490         0.001504   
    213. D(O   6,H   7,H   4,H  13)     50.6489         0.001504   
    214. D(O   6,H   7,H   4,O   0)    161.8343         0.001504   
    215. D(O   6,H   7,H   4,H   1)    133.0638         0.001504   
    216. D(H  16,H   7,H   1,H  11)     15.2163         0.001506   
    217. D(H  16,H   7,H   1,H  10)    -22.5565         0.001506   
    218. D(H  16,H   7,H   1,O   9)      5.6467         0.001506   
    219. D(H   4,H   7,H   1,H  10)     82.8775         0.001506   
    220. D(H   4,H   7,H   1,O   0)    -59.9766         0.001506   
    221. D(O   0,H   7,H   1,H   4)     59.9766         0.001506   
    222. D(H  16,H   7,H   1,H   4)   -105.4340         0.001506   
    223. D(O   6,H   7,H   4,O   3)     -4.1147         0.001504   
    224. D(O   0,H   7,H   1,H  11)   -179.3731         0.001506   
    225. D(H   4,H   7,H   1,O   9)    111.0807         0.001506   
    226. D(O   0,H   7,H   1,H  10)    142.8541         0.001506   
    227. D(O   6,H   7,H   4,H   8)    -11.5338         0.001504   
    228. D(O   0,H   7,H   1,O   9)    171.0573         0.001506   
    229. D(H  16,H   7,H   1,O   0)   -165.4106         0.001506   
    230. D(O   6,H   7,H   1,H   4)    -78.2977         0.001506   
    231. D(O   6,H   7,H   1,H  11)     42.3526         0.001506   
    232. D(H   1,H   7,H   4,O   3)   -137.1786         0.001504   
    233. D(H   1,H   7,H   4,O   0)     28.7705         0.001504   
    234. D(H   4,H   7,H   1,H  11)    120.6503         0.001506   
    235. D(H   1,H   7,H   4,H   8)   -144.5976         0.001504   
    236. D(O   6,H   7,H   1,O   9)     32.7830         0.001506   
    237. D(O   6,H   7,H   1,O   0)   -138.2743         0.001506   
    238. D(H  16,H   7,O   0,H   4)    -86.4826         0.001597   
    239. D(H  16,H   7,H   4,H  13)     -1.1572         0.001504   
    240. D(O   6,H   7,H   1,H  10)      4.5798         0.001506   
    241. D(H  16,H   7,O   0,H   2)    138.3043         0.001597   
    242. D(O   6,H   7,O   0,H   4)    -35.3282         0.001597   
    243. D(H   4,H   7,O   0,H   2)   -135.2132         0.001597   
    244. D(H   1,H   7,O   0,H   4)   -102.4079         0.001597   
    245. D(H   1,H   7,O   0,H   2)    122.3789         0.001597   
    246. D(H  16,H   7,O   0,H   1)     15.9254         0.001597   
    247. D(H   4,H   7,O   0,H   1)    102.4079         0.001597   
    248. D(O   6,H   7,O   0,H   2)   -170.5413         0.001597   
    249. D(O   6,H   8,H   4,O   0)      6.8718         0.001508   
    250. D(O   6,H   8,H   4,H   1)    -17.7587         0.001508   
    251. D(O   6,H   8,H   4,O   3)   -160.0569         0.001508   
    252. D(H  16,H   8,O   3,H  13)    -22.1284         0.001531   
    253. D(H  16,H   8,O   3,H   5)   -169.1613         0.001531   
    254. D(O   6,H   8,H   4,H  13)   -103.9202         0.001508   
    255. D(H  16,H   8,O   3,H   4)     79.6464         0.001531   
    256. D(H   4,H   8,O   3,H  13)   -101.7748         0.001531   
    257. D(H   4,H   8,O   3,H   5)    111.1922         0.001531   
    258. D(O   6,H   8,O   3,H  13)    -74.9137         0.001531   
    259. D(O   6,H   8,O   3,H   5)    138.0534         0.001531   
    260. D(O   6,H   8,O   3,H   4)     26.8611         0.001531   
    261. D(H   4,H   8,O   6,H   7)    -19.0169         0.401285   
    262. D(H  16,H   8,H   4,H   1)     33.5003         0.001508   
    263. D(H  16,H   8,H   4,H  13)    -52.6613         0.001508   
    264. D(H   4,H   8,O   6,H  16)     91.1475         0.401285   
    265. D(O   3,H   8,O   6,H   7)    -30.9427         0.401285   
    266. D(H  16,H   8,H   4,O   0)     58.1308         0.001508   
    267. D(O   3,H   8,O   6,H  16)     79.2216         0.401285   
    268. D(H  16,H   8,H   4,O   3)   -108.7979         0.001508   
    269. D(O   3,H   8,H   4,H   7)    172.2523         0.001508   
    270. D(H  16,H   8,H   4,H   7)     63.4544         0.001508   
    271. D(O   3,H   8,H   4,H  13)     56.1366         0.001508   
    272. D(O   3,H   8,H   4,H   1)    142.2982         0.001508   
    273. D(H  16,H   8,O   6,H   7)   -110.1644         0.401285   
    274. D(O   3,H   8,H   4,O   0)    166.9287         0.001508   
    275. D(O   6,H   8,H   4,H   7)     12.1955         0.001508   
    276. D(H  11,O   9,H   1,H   7)     23.1085         0.002499   
    277. D(H  11,O   9,H   1,H   4)     94.4037         0.002499   
    278. D(H  11,O   9,H   1,H  10)    105.8430         0.002499   
    279. D(H  11,O   9,H   1,O   0)     63.8275         0.002499   
    280. D(H  10,O   9,H   1,H   7)    -82.7345         0.002499   
    281. D(H  10,O   9,H   1,H   4)    -11.4393         0.002499   
    282. D(H  10,O   9,H   1,H  11)   -105.8430         0.002499   
    283. D(H  10,O   9,H   1,O   0)    -42.0155         0.002499   
    284. D(H  14,H  10,O   9,H   1)     89.9507         0.392975   
    285. D(H  13,H  10,O   9,H   1)     34.0313         0.392975   
    286. D(H  13,H  10,O   9,H  11)    -76.3972         0.392975   
    287. D(O  12,H  10,O   9,H   1)     71.1741         0.392975   
    288. D(H   1,H  10,O   9,H  11)   -110.4285         0.392975   
    289. D(H  14,H  10,H   1,H   7)    -14.7013         0.001536   
    290. D(H  14,H  10,H   1,H   4)     47.4815         0.001536   
    291. D(H  14,H  10,H   1,O   9)   -122.4898         0.001536   
    292. D(H  14,H  10,H   1,O   0)     44.4095         0.001536   
    293. D(H  13,H  10,H   1,H   7)    -50.9492         0.001536   
    294. D(H  13,H  10,H   1,H   4)     11.2335         0.001536   
    295. D(H  13,H  10,H   1,H  11)   -120.2517         0.001536   
    296. D(H  13,H  10,H   1,O   9)   -158.7377         0.001536   
    297. D(H  13,H  10,H   1,O   0)      8.1615         0.001536   
    298. D(O  12,H  10,H   1,H   7)    -44.6371         0.001536   
    299. D(H  14,H  10,H   1,H  11)    -84.0037         0.001536   
    300. D(O  12,H  10,H   1,H   4)     17.5457         0.001536   
    301. D(O  12,H  10,H   1,H  11)   -113.9396         0.001536   
    302. D(O  12,H  10,H   1,O   9)   -152.4256         0.001536   
    303. D(O  12,H  10,O   9,H  11)    -39.2544         0.392975   
    304. D(O  12,H  10,H   1,O   0)     14.4736         0.001536   
    305. D(O   9,H  10,H   1,H   7)    107.7885         0.001536   
    306. D(O   9,H  10,H   1,H   4)    169.9713         0.001536   
    307. D(H  14,H  10,O   9,H  11)    -20.4778         0.392975   
    308. D(O   9,H  10,H   1,H  11)     38.4860         0.001536   
    309. D(O   9,H  10,H   1,O   0)    166.8992         0.001536   
    310. D(O  15,H  11,O   9,H   1)    -71.6360         0.363112   
    311. D(H   1,H  11,O   9,H  10)    106.1060         0.363112   
    312. D(O  15,H  11,H   1,H   7)    -21.2837         0.001520   
    313. D(O  15,H  11,H   1,H   4)     38.5469         0.001520   
    314. D(O  15,H  11,H   1,H  10)     96.1782         0.001520   
    315. D(O  15,H  11,H   1,O   9)    137.7790         0.001520   
    316. D(O  15,H  11,H   1,O   0)    -22.2833         0.001520   
    317. D(O   9,H  11,H   1,H   7)   -159.0627         0.001520   
    318. D(O   9,H  11,H   1,H   4)    -99.2321         0.001520   
    319. D(O  15,H  11,O   9,H  10)     34.4700         0.363112   
    320. D(O   9,H  11,H   1,H  10)    -41.6008         0.001520   
    321. D(O   9,H  11,H   1,O   0)   -160.0623         0.001520   
    322. D(H  14,O  12,H  10,H  13)    104.4291         0.001713   
    323. D(H  14,O  12,H  10,H   1)     88.9762         0.001713   
    324. D(H  14,O  12,H  10,O   9)     32.9544         0.001713   
    325. D(H  13,O  12,H  10,H  14)   -104.4291         0.001713   
    326. D(H  13,O  12,H  10,H   1)    -15.4529         0.001713   
    327. D(H  13,O  12,H  10,O   9)    -71.4747         0.001713   
    328. D(H  10,H  13,O  12,H  14)    -92.4388         0.391647   
    329. D(H   4,H  13,O  12,H  14)    -88.0369         0.391647   
    330. D(O   3,H  13,O  12,H  10)     18.6224         0.391647   
    331. D(O   3,H  13,O  12,H  14)    -73.8164         0.391647   
    332. D(H   4,H  13,H  10,H  14)   -133.7315         0.001509   
    333. D(H   4,H  13,H  10,O  12)   -177.1255         0.001509   
    334. D(H   4,H  13,H  10,H   1)    -10.9130         0.001509   
    335. D(H   4,H  13,H  10,O   9)    -36.9251         0.001509   
    336. D(O   3,H  13,H  10,O  12)   -174.0111         0.001509   
    337. D(O   3,H  13,H  10,H   1)     -7.7986         0.001509   
    338. D(O   3,H  13,H  10,O   9)    -33.8106         0.001509   
    339. D(O  12,H  13,H  10,H   1)    166.2125         0.001509   
    340. D(O  12,H  13,H  10,O   9)    140.2004         0.001509   
    341. D(H  10,H  13,H   4,H   8)    101.6434         0.001505   
    342. D(H  10,H  13,H   4,H   7)     68.8670         0.001505   
    343. D(H  10,H  13,H   4,H   1)     10.0053         0.001505   
    344. D(H  10,H  13,H   4,O   0)     15.8195         0.001505   
    345. D(H  10,H  13,H   4,O   3)    172.6679         0.001505   
    346. D(O   3,H  13,H   4,H   8)    -71.0245         0.001505   
    347. D(O   3,H  13,H   4,H   7)   -103.8009         0.001505   
    348. D(O   3,H  13,H   4,H   1)   -162.6626         0.001505   
    349. D(O   3,H  13,H   4,O   0)   -156.8484         0.001505   
    350. D(O  12,H  13,H   4,H   8)     98.1081         0.001505   
    351. D(O  12,H  13,H  10,H  14)     43.3941         0.001509   
    352. D(O  12,H  13,H   4,H   7)     65.3316         0.001505   
    353. D(O  12,H  13,H   4,H   1)      6.4699         0.001505   
    354. D(O  12,H  13,H   4,O   0)     12.2841         0.001505   
    355. D(O   3,H  13,H  10,H  14)   -130.6170         0.001509   
    356. D(O  12,H  13,H   4,O   3)    169.1325         0.001505   
    357. D(H  10,H  13,O   3,H   8)     79.7208         0.001607   
    358. D(H  10,H  13,O   3,H   5)   -126.0594         0.001607   
    359. D(H  10,H  13,O   3,H   4)     -7.7665         0.001607   
    360. D(H   4,H  13,O   3,H   8)     87.4873         0.001607   
    361. D(H   4,H  13,O   3,H   5)   -118.2929         0.001607   
    362. D(O  12,H  13,O   3,H   8)     63.9573         0.001607   
    363. D(H   4,H  13,O  12,H  10)      4.4019         0.391647   
    364. D(O  12,H  13,O   3,H   5)   -141.8229         0.001607   
    365. D(O  12,H  13,O   3,H   4)    -23.5300         0.001607   
    366. D(O  15,H  14,O  12,H  10)    -22.8456         0.362004   
    367. D(O  15,H  14,O  12,H  13)     79.7555         0.362004   
    368. D(H  10,H  14,O  12,H  13)    102.6011         0.362004   
    369. D(O  15,H  14,H  10,H  13)    129.9413         0.001532   
    370. D(O  15,H  14,H  10,O  12)    168.0060         0.001532   
    371. D(O  15,H  14,H  10,H   1)     64.1215         0.001532   
    372. D(O  15,H  14,H  10,O   9)      5.8384         0.001532   
    373. D(O  12,H  14,H  10,H  13)    -38.0647         0.001532   
    374. D(O  12,H  14,H  10,H   1)   -103.8845         0.001532   
    375. D(O  12,H  14,H  10,O   9)   -162.1676         0.001532   
    376. D(H  11,O  15,H  14,H  10)      5.0305         0.001552   
    377. D(H  11,O  15,H  14,O  12)     25.3818         0.001552   
    378. D(H  17,O  15,H  14,H  10)    147.8424         0.001552   
    379. D(H  17,O  15,H  14,O  12)    168.1937         0.001552   
    380. D(H  16,O  15,H  14,H  10)    -92.0279         0.001552   
    381. D(H  16,O  15,H  14,O  12)    -71.6766         0.001552   
    382. D(H  14,O  15,H  11,H   1)    -77.5111         0.001537   
    383. D(H  14,O  15,H  11,O   9)    -28.9769         0.001537   
    384. D(H  17,O  15,H  11,H   1)    143.1225         0.001537   
    385. D(H  17,O  15,H  11,O   9)   -168.3433         0.001537   
    386. D(H  16,O  15,H  11,H   1)     19.2102         0.001537   
    387. D(H  16,O  15,H  11,O   9)     67.7444         0.001537   
    388. D(O  15,H  16,O   6,H   7)     47.7996         0.001929   
    389. D(H   8,H  16,O  15,H  14)     -1.5238         0.380237   
    390. D(H   8,H  16,O  15,H  11)    -80.4121         0.380237   
    391. D(H   8,H  16,O  15,H  17)    136.3065         0.380237   
    392. D(H   7,H  16,O  15,H  11)     -5.9413         0.380237   
    393. D(H   7,H  16,O  15,H  17)   -149.2228         0.380237   
    394. D(O   6,H  16,O  15,H  14)     39.9513         0.380237   
    395. D(O   6,H  16,O  15,H  17)    177.7815         0.380237   
    396. D(H   7,H  16,H   8,H   4)    -67.9603         0.001510   
    397. D(H   7,H  16,H   8,O   3)    -93.4414         0.001510   
    398. D(H   7,H  16,H   8,O   6)     39.0921         0.001510   
    399. D(O   6,H  16,H   8,H   4)   -107.0524         0.001510   
    400. D(O   6,H  16,H   8,O   3)   -132.5335         0.001510   
    401. D(O  15,H  16,H   8,H   4)     51.5708         0.001510   
    402. D(O  15,H  16,H   8,O   3)     26.0898         0.001510   
    403. D(O  15,H  16,H   8,O   6)    158.6233         0.001510   
    404. D(H   8,H  16,H   7,H   4)     60.2840         0.001513   
    405. D(H   8,H  16,H   7,H   1)    116.7848         0.001513   
    406. D(H   8,H  16,H   7,O   0)    110.2339         0.001513   
    407. D(H   8,H  16,H   7,O   6)    -37.8326         0.001513   
    408. D(O   6,H  16,H   7,H   4)     98.1165         0.001513   
    409. D(O   6,H  16,H   7,H   1)    154.6174         0.001513   
    410. D(O   6,H  16,H   7,O   0)    148.0665         0.001513   
    411. D(O   6,H  16,O  15,H  11)    -38.9370         0.380237   
    412. D(O  15,H  16,H   7,H   4)    -64.9339         0.001513   
    413. D(O  15,H  16,H   7,H   1)     -8.4331         0.001513   
    414. D(O  15,H  16,H   7,O   0)    -14.9839         0.001513   
    415. D(H   7,H  16,O  15,H  14)     72.9470         0.380237   
    416. D(O  15,H  16,H   7,O   6)   -163.0504         0.001513   
    417. D(H   8,H  16,O   6,H   7)    108.2199         0.001929   
    418. D(H   7,H  16,O   6,H   8)   -108.2199         0.001929   
    419. D(O  15,H  16,O   6,H   8)    -60.4202         0.001929   
    -----------------------------------------------------------------

Number of atoms                         .... 18
Number of degrees of freedom            .... 419

         *************************************************************
         *                GEOMETRY OPTIMIZATION CYCLE   1            *
         *************************************************************
---------------------------------
CARTESIAN COORDINATES (ANGSTROEM)
---------------------------------
  O     -1.511782   -0.232325    1.434522
  H     -0.613900   -0.631798    1.542476
  H     -2.015087   -0.484249    2.210210
  O     -1.744551   -0.350365   -1.322141
  H     -1.890020   -0.475498   -0.368433
  H     -2.508917   -0.726304   -1.761973
  O     -0.568902    2.010658   -0.079448
  H     -0.957800    1.521230    0.658817
  H     -0.991476    1.598457   -0.842120
  O      0.972064   -1.194842    1.413465
  H      0.986177   -1.536208    0.500658
  H      1.544338   -0.420911    1.334663
  O      0.983916   -1.359847   -1.372465
  H      0.077993   -1.073694   -1.552782
  H      1.480193   -0.535792   -1.283351
  O      2.003223    1.063257   -0.092296
  H      1.144078    1.530799   -0.098089
  H      2.672690    1.741694   -0.193152

----------------------------
CARTESIAN COORDINATES (A.U.)
----------------------------
  NO LB      ZA    FRAG     MASS         X           Y           Z
   0 O     8.0000    0    15.999   -2.856854   -0.439031    2.710854
   1 H     1.0000    0     1.008   -1.160103   -1.193925    2.914857
   2 H     1.0000    0     1.008   -3.807963   -0.915098    4.176692
   3 O     8.0000    0    15.999   -3.296724   -0.662094   -2.498484
   4 H     1.0000    0     1.008   -3.571620   -0.898561   -0.696237
   5 H     1.0000    0     1.008   -4.741166   -1.372516   -3.329646
   6 O     8.0000    0    15.999   -1.075069    3.799593   -0.150135
   7 H     1.0000    0     1.008   -1.809980    2.874708    1.244984
   8 H     1.0000    0     1.008   -1.873618    3.020646   -1.591376
   9 O     8.0000    0    15.999    1.836935   -2.257924    2.671062
  10 H     1.0000    0     1.008    1.863604   -2.903012    0.946107
  11 H     1.0000    0     1.008    2.918376   -0.795407    2.522148
  12 O     8.0000    0    15.999    1.859332   -2.569738   -2.593583
  13 H     1.0000    0     1.008    0.147385   -2.028988   -2.934333
  14 H     1.0000    0     1.008    2.797159   -1.012500   -2.425182
  15 O     8.0000    0    15.999    3.785543    2.009265   -0.174414
  16 H     1.0000    0     1.008    2.161994    2.892791   -0.185361
  17 H     1.0000    0     1.008    5.050652    3.291325   -0.365004

--------------------------------
INTERNAL COORDINATES (ANGSTROEM)
--------------------------------
 O      0   0   0     0.000000000000     0.00000000     0.00000000
 H      1   0   0     0.988647980714     0.00000000     0.00000000
 H      1   2   0     0.958370230206   106.40107860     0.00000000
 O      1   2   3     2.768990022468    99.66154740   212.47552383
 H      4   1   2     0.972819842989    16.67729903   119.09110810
 H      4   1   2     0.958664540859   122.71743384   129.27539765
 O      5   4   1     2.830165499840    85.25660701    25.76878351
 H      7   5   4     0.967376158386    56.34640489   176.00376880
 H      7   5   4     0.964441304311    48.64483482    18.50046316
 O      2   1   3     1.687881569706   168.46243150   174.47289154
 H     10   2   1     0.974652010706   101.65533573   317.98448536
 H     10   2   1     0.965751768852   107.19959144    63.82750841
 O     11  10   2     1.881408538189   154.10203042    71.17408028
 H     13  11  10     0.967002710351   102.38699361   288.52530951
 H     13  11  10     0.966073914745    89.28401566    32.95438596
 O     15  13  11     2.061341819865   147.70808320   337.15441420
 H     16  15  13     0.978140691127    98.30865326   288.32341443
 H     16  15  13     0.958454359787   131.72266037   168.19370025

---------------------------
INTERNAL COORDINATES (A.U.)
---------------------------
 O      0   0   0     0.000000000000     0.00000000     0.00000000
 H      1   0   0     1.868273926403     0.00000000     0.00000000
 H      1   2   0     1.811057269992   106.40107860     0.00000000
 O      1   2   3     5.232632810026    99.66154740   212.47552383
 H      4   1   2     1.838363080894    16.67729903   119.09110810
 H      4   1   2     1.811613436525   122.71743384   129.27539765
 O      5   4   1     5.348237708370    85.25660701    25.76878351
 H      7   5   4     1.828076007834    56.34640489   176.00376880
 H      7   5   4     1.822529937389    48.64483482    18.50046316
 O      2   1   3     3.189633913237   168.46243150   174.47289154
 H     10   2   1     1.841825376111   101.65533573   317.98448536
 H     10   2   1     1.825006356481   107.19959144    63.82750841
 O     11  10   2     3.555346883199   154.10203042    71.17408028
 H     13  11  10     1.827370293324   102.38699361   288.52530951
 H     13  11  10     1.825615123993    89.28401566    32.95438596
 O     15  13  11     3.895371507944   147.70808320   337.15441420
 H     16  15  13     1.848418026674    98.30865326   288.32341443
 H     16  15  13     1.811216251860   131.72266037   168.19370025

---------------------
BASIS SET INFORMATION
---------------------
There are 2 groups of distinct atoms

 Group   1 Type O   : 19s6p3d2f contracted to 5s4p3d2f pattern {88111/3111/111/11}
 Group   2 Type H   : 6s3p2d contracted to 4s3p2d pattern {3111/111/11}

Atom   0O    basis set group =>   1
Atom   1H    basis set group =>   2
Atom   2H    basis set group =>   2
Atom   3O    basis set group =>   1
Atom   4H    basis set group =>   2
Atom   5H    basis set group =>   2
Atom   6O    basis set group =>   1
Atom   7H    basis set group =>   2
Atom   8H    basis set group =>   2
Atom   9O    basis set group =>   1
Atom  10H    basis set group =>   2
Atom  11H    basis set group =>   2
Atom  12O    basis set group =>   1
Atom  13H    basis set group =>   2
Atom  14H    basis set group =>   2
Atom  15O    basis set group =>   1
Atom  16H    basis set group =>   2
Atom  17H    basis set group =>   2
---------------------------------
AUXILIARY/J BASIS SET INFORMATION
---------------------------------
There are 2 groups of distinct atoms

 Group   1 Type O   : 12s5p4d2f1g contracted to 6s4p3d1f1g pattern {711111/2111/211/2/1}
 Group   2 Type H   : 5s2p1d contracted to 3s1p1d pattern {311/2/1}

Atom   0O    basis set group =>   1
Atom   1H    basis set group =>   2
Atom   2H    basis set group =>   2
Atom   3O    basis set group =>   1
Atom   4H    basis set group =>   2
Atom   5H    basis set group =>   2
Atom   6O    basis set group =>   1
Atom   7H    basis set group =>   2
Atom   8H    basis set group =>   2
Atom   9O    basis set group =>   1
Atom  10H    basis set group =>   2
Atom  11H    basis set group =>   2
Atom  12O    basis set group =>   1
Atom  13H    basis set group =>   2
Atom  14H    basis set group =>   2
Atom  15O    basis set group =>   1
Atom  16H    basis set group =>   2
Atom  17H    basis set group =>   2


           ************************************************************
           *        Program running with 24 parallel MPI-processes    *
           *              working on a common directory               *
           ************************************************************
------------------------------------------------------------------------------
                           ORCA GTO INTEGRAL CALCULATION
                           -- RI-GTO INTEGRALS CHOSEN --
------------------------------------------------------------------------------

                         BASIS SET STATISTICS AND STARTUP INFO

Gaussian basis set:
 # of primitive gaussian shells          ...  312
 # of primitive gaussian functions       ...  696
 # of contracted shells                  ...  192
 # of contracted basis functions         ...  552
 Highest angular momentum                ...    3
 Maximum contraction depth               ...    8
Auxiliary gaussian basis set:
 # of primitive gaussian shells          ...  240
 # of primitive gaussian functions       ...  612
 # of contracted shells                  ...  150
 # of contracted aux-basis functions     ...  426
 Highest angular momentum                ...    4
 Maximum contraction depth               ...    7
Ratio of auxiliary to basis functions    ...  0.77
Integral package used                  ... LIBINT
 One Electron integrals                  ... done
 Ordering auxiliary basis shells         ... done
 Integral threshhold             Thresh  ...  2.500e-11
 Primitive cut-off               TCut    ...  2.500e-12
 Pre-screening matrix                    ... done
 Shell pair data                         ... 
 Ordering of the shell pairs             ... done (   0.003 sec) 17765 of 18528 pairs
 Determination of significant pairs      ... done (   0.000 sec)
 Creation of shell pair data             ... done (   0.002 sec)
 Storage of shell pair data              ... done (   0.010 sec)
 Shell pair data done in (   0.016 sec)
 Computing two index integrals           ... done
 Cholesky decomposition of the V-matrix  ... done


Timings:
 Total evaluation time                   ...   0.451 sec (  0.008 min)
 One electron matrix time                ...   0.136 sec (  0.002 min) = 30.2%
 Schwartz matrix evaluation time         ...   0.199 sec (  0.003 min) = 44.2%
 Two index repulsion integral time       ...   0.004 sec (  0.000 min) =  0.8%
 Cholesky decomposition of V             ...   0.070 sec (  0.001 min) = 15.6%
 Three index repulsion integral time     ...   0.000 sec (  0.000 min) =  0.0%



           ************************************************************
           *        Program running with 24 parallel MPI-processes    *
           *              working on a common directory               *
           ************************************************************
-------------------------------------------------------------------------------
                                 ORCA SCF
-------------------------------------------------------------------------------

------------
SCF SETTINGS
------------
Hamiltonian:
 Density Functional     Method          .... DFT(GTOs)
 Exchange Functional    Exchange        .... SCAN
 Correlation Functional Correlation     .... SCAN
 Gradients option       PostSCFGGA      .... off
   Density functional embedding theory  .... OFF
   NL short-range parameter             ....  6.400000
 RI-approximation to the Coulomb term is turned on
   Number of auxiliary basis functions  .... 426


General Settings:
 Integral files         IntName         .... 09_H2O_6_prism
 Hartree-Fock type      HFTyp           .... RHF
 Total Charge           Charge          ....    0
 Multiplicity           Mult            ....    1
 Number of Electrons    NEL             ....   60
 Basis Dimension        Dim             ....  552
 Nuclear Repulsion      ENuc            ....    304.8722684032 Eh

Convergence Acceleration:
 DIIS                   CNVDIIS         .... on
   Start iteration      DIISMaxIt       ....    12
   Startup error        DIISStart       ....  0.200000
   # of expansion vecs  DIISMaxEq       ....     5
   Bias factor          DIISBfac        ....   1.050
   Max. coefficient     DIISMaxC        ....  10.000
 Newton-Raphson         CNVNR           .... off
 SOSCF                  CNVSOSCF        .... on
   Start iteration      SOSCFMaxIt      ....   150
   Startup grad/error   SOSCFStart      ....  0.003300
 Level Shifting         CNVShift        .... on
   Level shift para.    LevelShift      ....    0.2500
   Turn off err/grad.   ShiftErr        ....    0.0010
 Zerner damping         CNVZerner       .... off
 Static damping         CNVDamp         .... on
   Fraction old density DampFac         ....    0.7000
   Max. Damping (<1)    DampMax         ....    0.9800
   Min. Damping (>=0)   DampMin         ....    0.0000
   Turn off err/grad.   DampErr         ....    0.1000
 Fernandez-Rico         CNVRico         .... off

SCF Procedure:
 Maximum # iterations   MaxIter         ....   125
 SCF integral mode      SCFMode         .... Direct
   Integral package                     .... LIBINT
 Reset frequency        DirectResetFreq ....    20
 Integral Threshold     Thresh          ....  2.500e-11 Eh
 Primitive CutOff       TCut            ....  2.500e-12 Eh

Convergence Tolerance:
 Convergence Check Mode ConvCheckMode   .... Total+1el-Energy
 Convergence forced     ConvForced      .... 0
 Energy Change          TolE            ....  1.000e-08 Eh
 1-El. energy change                    ....  1.000e-05 Eh
 Orbital Gradient       TolG            ....  1.000e-05
 Orbital Rotation angle TolX            ....  1.000e-05
 DIIS Error             TolErr          ....  5.000e-07


Diagonalization of the overlap matrix:
Smallest eigenvalue                        ... 3.067e-05
Time for diagonalization                   ...    0.060 sec
Threshold for overlap eigenvalues          ... 1.000e-08
Number of eigenvalues below threshold      ... 0
Time for construction of square roots      ...    0.042 sec
Total time needed                          ...    0.103 sec

-------------------
DFT GRID GENERATION
-------------------

General Integration Accuracy     IntAcc      ...  4.670
Radial Grid Type                 RadialGrid  ... Gauss-Chebyshev
Angular Grid (max. acc.)         AngularGrid ... Lebedev-302
Angular grid pruning method      GridPruning ... 3 (G Style)
Weight generation scheme         WeightScheme... Becke
Basis function cutoff            BFCut       ...    1.0000e-11
Integration weight cutoff        WCut        ...    1.0000e-14
Grids for H and He will be reduced by one unit

# of grid points (after initial pruning)     ...  78000 (   0.0 sec)
# of grid points (after weights+screening)   ...  71466 (   0.0 sec)
nearest neighbour list constructed           ...    0.0 sec
Grid point re-assignment to atoms done       ...    0.0 sec
Grid point division into batches done        ...    0.2 sec
Reduced shell lists constructed in    0.2 sec

Total number of grid points                  ...    71466
Total number of batches                      ...     1127
Average number of points per batch           ...       63
Average number of grid points per atom       ...     3970
Average number of shells per batch           ...   143.62 (74.80%)
Average number of basis functions per batch  ...   403.12 (73.03%)
Average number of large shells per batch     ...   117.60 (81.88%)
Average number of large basis fcns per batch ...   322.44 (79.98%)
Maximum spatial batch extension              ...   2.66,  2.86,  2.23 au
Average spatial batch extension              ...   0.04,  0.04,  0.04 au

Time for grid setup =    0.292 sec

------------------------------
INITIAL GUESS: MODEL POTENTIAL
------------------------------
Loading Hartree-Fock densities                     ... done
Calculating cut-offs                               ... done
Setting up the integral package                    ... done
Initializing the effective Hamiltonian             ... done
Starting the Coulomb interaction                   ... done (   0.0 sec)
Reading the grid                                   ... done
Mapping shells                                     ... done
Starting the XC term evaluation                    ... done (   0.2 sec)
  promolecular density results
     # of electrons  =     59.993462020
     EX              =    -57.938839688
     EC              =     -0.966037348
     EX+EC           =    -58.904877036
Transforming the Hamiltonian                       ... done (   0.0 sec)
Diagonalizing the Hamiltonian                      ... done (   0.0 sec)
Back transforming the eigenvectors                 ... done (   0.0 sec)
Now organizing SCF variables                       ... done
                      ------------------
                      INITIAL GUESS DONE (   0.6 sec)
                      ------------------
--------------
SCF ITERATIONS
--------------
ITER       Energy         Delta-E        Max-DP      RMS-DP      [F,P]     Damp
               ***  Starting incremental Fock matrix formation  ***
  0   -457.4051162603   0.000000000000 0.08355007  0.00112471  0.5591028 0.7000
  1   -458.0269746721  -0.621858411864 0.03122447  0.00055221  0.2226731 0.7000
                               ***Turning on DIIS***
  2   -458.2164866120  -0.189511939908 0.05240958  0.00071366  0.0581944 0.0000
  3   -458.5692849359  -0.352798323832 0.00597179  0.00011488  0.1266250 0.7000
  4   -458.5945752585  -0.025290322673 0.01916451  0.00036472  0.0960381 0.0000
  5   -458.6388523973  -0.044277138811 0.00639139  0.00006146  0.0052506 0.0000
  6   -458.6390420251  -0.000189627803 0.00207912  0.00002178  0.0033814 0.0000
                      *** Initiating the SOSCF procedure ***
                           *** Shutting down DIIS ***
                      *** Re-Reading the Fockian *** 
                      *** Removing any level shift *** 
ITER      Energy       Delta-E        Grad      Rot      Max-DP    RMS-DP
  7   -458.63908190  -0.0000398717  0.000226  0.000226  0.000641  0.000010
               *** Restarting incremental Fock matrix formation ***
  8   -458.63909027  -0.0000083693  0.000097  0.000318  0.000408  0.000007
  9   -458.63909100  -0.0000007296  0.000061  0.000090  0.000132  0.000002
 10   -458.63909136  -0.0000003652  0.000026  0.000071  0.000103  0.000002
 11   -458.63909144  -0.0000000800  0.000017  0.000014  0.000044  0.000000
 12   -458.63909149  -0.0000000457  0.000003  0.000012  0.000016  0.000000
 13   -458.63909151  -0.0000000199  0.000003  0.000004  0.000010  0.000000
                  ***Gradient check signals convergence***
              ***Rediagonalizing the Fockian in SOSCF/NRSCF***

               *****************************************************
               *                     SUCCESS                       *
               *           SCF CONVERGED AFTER  14 CYCLES          *
               *****************************************************


----------------
TOTAL SCF ENERGY
----------------

Total Energy       :         -458.63909151 Eh          -12480.20416 eV

Components:
Nuclear Repulsion  :          304.87226840 Eh            8295.99618 eV
Electronic Energy  :         -763.51135992 Eh          -20776.20034 eV
One Electron Energy:        -1237.68474473 Eh          -33679.11412 eV
Two Electron Energy:          474.17338481 Eh           12902.91377 eV

Virial components:
Potential Energy   :         -914.86299832 Eh          -24894.68781 eV
Kinetic Energy     :          456.22390680 Eh           12414.48364 eV
Virial Ratio       :            2.00529386


DFT components:
N(Alpha)           :       29.999816796486 electrons
N(Beta)            :       29.999816796486 electrons
N(Total)           :       59.999633592973 electrons
E(X)               :      -53.918932018576 Eh       
E(C)               :       -1.943828971257 Eh       
E(XC)              :      -55.862760989833 Eh       
DFET-embed. en.    :        0.000000000000 Eh       

---------------
SCF CONVERGENCE
---------------

  Last Energy change         ...   -6.5576e-09  Tolerance :   1.0000e-08
  Last MAX-Density change    ...    8.0531e-06  Tolerance :   1.0000e-07
  Last RMS-Density change    ...    1.2110e-07  Tolerance :   5.0000e-09
  Last Orbital Gradient      ...    1.2110e-06  Tolerance :   1.0000e-05
  Last Orbital Rotation      ...    3.9056e-06  Tolerance :   1.0000e-05

             **** THE GBW FILE WAS UPDATED (09_H2O_6_prism.gbw) ****
             **** DENSITY FILE WAS UPDATED (09_H2O_6_prism.scfp) ****
             **** ENERGY FILE WAS UPDATED (09_H2O_6_prism.en.tmp) ****
             **** THE GBW FILE WAS UPDATED (09_H2O_6_prism.gbw) ****
             **** DENSITY FILE WAS UPDATED (09_H2O_6_prism.scfp) ****
----------------
ORBITAL ENERGIES
----------------

  NO   OCC          E(Eh)            E(eV) 
   0   2.0000     -18.979891      -516.4691 
   1   2.0000     -18.974152      -516.3129 
   2   2.0000     -18.964319      -516.0454 
   3   2.0000     -18.963951      -516.0354 
   4   2.0000     -18.952364      -515.7201 
   5   2.0000     -18.944532      -515.5069 
   6   2.0000      -1.004167       -27.3248 
   7   2.0000      -0.992215       -26.9995 
   8   2.0000      -0.988112       -26.8879 
   9   2.0000      -0.979401       -26.6509 
  10   2.0000      -0.970880       -26.4190 
  11   2.0000      -0.959910       -26.1205 
  12   2.0000      -0.526772       -14.3342 
  13   2.0000      -0.511792       -13.9266 
  14   2.0000      -0.506078       -13.7711 
  15   2.0000      -0.493751       -13.4356 
  16   2.0000      -0.482848       -13.1390 
  17   2.0000      -0.480265       -13.0687 
  18   2.0000      -0.400121       -10.8878 
  19   2.0000      -0.393908       -10.7188 
  20   2.0000      -0.371894       -10.1197 
  21   2.0000      -0.364680        -9.9235 
  22   2.0000      -0.353101        -9.6084 
  23   2.0000      -0.331964        -9.0332 
  24   2.0000      -0.303460        -8.2576 
  25   2.0000      -0.300572        -8.1790 
  26   2.0000      -0.290142        -7.8952 
  27   2.0000      -0.288411        -7.8481 
  28   2.0000      -0.281487        -7.6597 
  29   2.0000      -0.264762        -7.2045 
  30   0.0000      -0.026199        -0.7129 
  31   0.0000       0.000118         0.0032 
  32   0.0000       0.007217         0.1964 
  33   0.0000       0.026622         0.7244 
  34   0.0000       0.035906         0.9770 
  35   0.0000       0.040164         1.0929 
  36   0.0000       0.048998         1.3333 
  37   0.0000       0.049194         1.3386 
  38   0.0000       0.053544         1.4570 
  39   0.0000       0.060779         1.6539 
  40   0.0000       0.070308         1.9132 
  41   0.0000       0.073399         1.9973 
  42   0.0000       0.086224         2.3463 
  43   0.0000       0.089246         2.4285 
  44   0.0000       0.094768         2.5788 
  45   0.0000       0.108758         2.9594 
  46   0.0000       0.117019         3.1842 
  47   0.0000       0.121317         3.3012 
  48   0.0000       0.127646         3.4734 
  49   0.0000       0.130599         3.5538 
  50   0.0000       0.139692         3.8012 
  51   0.0000       0.142756         3.8846 
  52   0.0000       0.144719         3.9380 
  53   0.0000       0.150007         4.0819 
  54   0.0000       0.155169         4.2224 
  55   0.0000       0.166609         4.5337 
  56   0.0000       0.168339         4.5807 
  57   0.0000       0.175686         4.7807 
  58   0.0000       0.177632         4.8336 
  59   0.0000       0.179967         4.8971 
  60   0.0000       0.183990         5.0066 
  61   0.0000       0.188375         5.1259 
  62   0.0000       0.192352         5.2342 
  63   0.0000       0.199874         5.4388 
  64   0.0000       0.202462         5.5093 
  65   0.0000       0.206810         5.6276 
  66   0.0000       0.209971         5.7136 
  67   0.0000       0.216190         5.8828 
  68   0.0000       0.226902         6.1743 
  69   0.0000       0.232014         6.3134 
  70   0.0000       0.234857         6.3908 
  71   0.0000       0.245848         6.6899 
  72   0.0000       0.251713         6.8495 
  73   0.0000       0.261909         7.1269 
  74   0.0000       0.275452         7.4954 
  75   0.0000       0.285657         7.7731 
  76   0.0000       0.288568         7.8523 
  77   0.0000       0.306497         8.3402 
  78   0.0000       0.317852         8.6492 
  79   0.0000       0.320670         8.7259 
  80   0.0000       0.325900         8.8682 
  81   0.0000       0.332508         9.0480 
  82   0.0000       0.333936         9.0869 
  83   0.0000       0.336378         9.1533 
  84   0.0000       0.344873         9.3845 
  85   0.0000       0.348980         9.4962 
  86   0.0000       0.353490         9.6190 
  87   0.0000       0.358981         9.7684 
  88   0.0000       0.362637         9.8679 
  89   0.0000       0.366517         9.9734 
  90   0.0000       0.370560        10.0834 
  91   0.0000       0.375203        10.2098 
  92   0.0000       0.382792        10.4163 
  93   0.0000       0.386530        10.5180 
  94   0.0000       0.395184        10.7535 
  95   0.0000       0.401083        10.9140 
  96   0.0000       0.406505        11.0616 
  97   0.0000       0.415582        11.3086 
  98   0.0000       0.420905        11.4534 
  99   0.0000       0.425718        11.5844 
 100   0.0000       0.427624        11.6362 
 101   0.0000       0.433896        11.8069 
 102   0.0000       0.437785        11.9127 
 103   0.0000       0.443697        12.0736 
 104   0.0000       0.448209        12.1964 
 105   0.0000       0.466145        12.6845 
 106   0.0000       0.468991        12.7619 
 107   0.0000       0.477792        13.0014 
 108   0.0000       0.480567        13.0769 
 109   0.0000       0.499817        13.6007 
 110   0.0000       0.507433        13.8080 
 111   0.0000       0.508569        13.8389 
 112   0.0000       0.522987        14.2312 
 113   0.0000       0.528687        14.3863 
 114   0.0000       0.538901        14.6642 
 115   0.0000       0.546322        14.8662 
 116   0.0000       0.559438        15.2231 
 117   0.0000       0.577529        15.7154 
 118   0.0000       0.587571        15.9886 
 119   0.0000       0.600741        16.3470 
 120   0.0000       0.613064        16.6823 
 121   0.0000       0.616943        16.7879 
 122   0.0000       0.632086        17.1999 
 123   0.0000       0.644798        17.5458 
 124   0.0000       0.646258        17.5856 
 125   0.0000       0.651002        17.7147 
 126   0.0000       0.663106        18.0440 
 127   0.0000       0.670866        18.2552 
 128   0.0000       0.676697        18.4139 
 129   0.0000       0.680072        18.5057 
 130   0.0000       0.685124        18.6432 
 131   0.0000       0.694915        18.9096 
 132   0.0000       0.705451        19.1963 
 133   0.0000       0.719574        19.5806 
 134   0.0000       0.724086        19.7034 
 135   0.0000       0.733017        19.9464 
 136   0.0000       0.747111        20.3299 
 137   0.0000       0.751960        20.4619 
 138   0.0000       0.763629        20.7794 
 139   0.0000       0.768574        20.9140 
 140   0.0000       0.775404        21.0998 
 141   0.0000       0.780665        21.2430 
 142   0.0000       0.793194        21.5839 
 143   0.0000       0.797256        21.6944 
 144   0.0000       0.811901        22.0930 
 145   0.0000       0.815442        22.1893 
 146   0.0000       0.827098        22.5065 
 147   0.0000       0.829912        22.5831 
 148   0.0000       0.839581        22.8461 
 149   0.0000       0.851047        23.1582 
 150   0.0000       0.859253        23.3815 
 151   0.0000       0.859787        23.3960 
 152   0.0000       0.874062        23.7844 
 153   0.0000       0.879765        23.9396 
 154   0.0000       0.882422        24.0119 
 155   0.0000       0.893474        24.3127 
 156   0.0000       0.896228        24.3876 
 157   0.0000       0.904772        24.6201 
 158   0.0000       0.919999        25.0345 
 159   0.0000       0.925440        25.1825 
 160   0.0000       0.929470        25.2922 
 161   0.0000       0.940800        25.6005 
 162   0.0000       0.942710        25.6525 
 163   0.0000       0.965376        26.2692 
 164   0.0000       0.969384        26.3783 
 165   0.0000       0.983056        26.7503 
 166   0.0000       0.991903        26.9911 
 167   0.0000       1.002244        27.2724 
 168   0.0000       1.006300        27.3828 
 169   0.0000       1.015829        27.6421 
 170   0.0000       1.019522        27.7426 
 171   0.0000       1.025623        27.9086 
 172   0.0000       1.027574        27.9617 
 173   0.0000       1.031819        28.0772 
 174   0.0000       1.040880        28.3238 
 175   0.0000       1.042088        28.3567 
 176   0.0000       1.050875        28.5958 
 177   0.0000       1.061869        28.8949 
 178   0.0000       1.074261        29.2321 
 179   0.0000       1.083798        29.4917 
 180   0.0000       1.085548        29.5393 
 181   0.0000       1.093100        29.7448 
 182   0.0000       1.097947        29.8766 
 183   0.0000       1.100802        29.9544 
 184   0.0000       1.117191        30.4003 
 185   0.0000       1.130635        30.7662 
 186   0.0000       1.138973        30.9930 
 187   0.0000       1.146539        31.1989 
 188   0.0000       1.154025        31.4026 
 189   0.0000       1.159280        31.5456 
 190   0.0000       1.168386        31.7934 
 191   0.0000       1.172094        31.8943 
 192   0.0000       1.186641        32.2901 
 193   0.0000       1.196415        32.5561 
 194   0.0000       1.210539        32.9405 
 195   0.0000       1.212360        32.9900 
 196   0.0000       1.223080        33.2817 
 197   0.0000       1.225759        33.3546 
 198   0.0000       1.234292        33.5868 
 199   0.0000       1.249788        34.0084 
 200   0.0000       1.253409        34.1070 
 201   0.0000       1.272301        34.6211 
 202   0.0000       1.282447        34.8972 
 203   0.0000       1.292576        35.1728 
 204   0.0000       1.299631        35.3648 
 205   0.0000       1.306409        35.5492 
 206   0.0000       1.320958        35.9451 
 207   0.0000       1.325261        36.0622 
 208   0.0000       1.334102        36.3027 
 209   0.0000       1.342384        36.5281 
 210   0.0000       1.351553        36.7776 
 211   0.0000       1.369086        37.2547 
 212   0.0000       1.382067        37.6079 
 213   0.0000       1.390065        37.8256 
 214   0.0000       1.399648        38.0864 
 215   0.0000       1.406861        38.2826 
 216   0.0000       1.414016        38.4773 
 217   0.0000       1.422086        38.6969 
 218   0.0000       1.443753        39.2865 
 219   0.0000       1.451819        39.5060 
 220   0.0000       1.454559        39.5806 
 221   0.0000       1.463450        39.8225 
 222   0.0000       1.475812        40.1589 
 223   0.0000       1.490988        40.5719 
 224   0.0000       1.508670        41.0530 
 225   0.0000       1.513668        41.1890 
 226   0.0000       1.526634        41.5418 
 227   0.0000       1.538639        41.8685 
 228   0.0000       1.549641        42.1679 
 229   0.0000       1.555400        42.3246 
 230   0.0000       1.570561        42.7371 
 231   0.0000       1.581228        43.0274 
 232   0.0000       1.592572        43.3361 
 233   0.0000       1.601338        43.5746 
 234   0.0000       1.628983        44.3269 
 235   0.0000       1.634528        44.4778 
 236   0.0000       1.645563        44.7780 
 237   0.0000       1.652274        44.9606 
 238   0.0000       1.668469        45.4013 
 239   0.0000       1.676502        45.6199 
 240   0.0000       1.696120        46.1538 
 241   0.0000       1.705926        46.4206 
 242   0.0000       1.722714        46.8774 
 243   0.0000       1.728375        47.0315 
 244   0.0000       1.752744        47.6946 
 245   0.0000       1.762805        47.9684 
 246   0.0000       1.767243        48.0891 
 247   0.0000       1.775104        48.3030 
 248   0.0000       1.786553        48.6146 
 249   0.0000       1.792453        48.7751 
 250   0.0000       1.812156        49.3113 
 251   0.0000       1.828836        49.7652 
 252   0.0000       1.836037        49.9611 
 253   0.0000       1.848479        50.2997 
 254   0.0000       1.860203        50.6187 
 255   0.0000       1.867383        50.8141 
 256   0.0000       1.898173        51.6519 
 257   0.0000       1.918802        52.2133 
 258   0.0000       1.932261        52.5795 
 259   0.0000       1.953538        53.1585 
 260   0.0000       1.976143        53.7736 
 261   0.0000       1.992034        54.2060 
 262   0.0000       1.993474        54.2452 
 263   0.0000       2.026595        55.1465 
 264   0.0000       2.035326        55.3840 
 265   0.0000       2.053809        55.8870 
 266   0.0000       2.064620        56.1812 
 267   0.0000       2.106023        57.3078 
 268   0.0000       2.117951        57.6324 
 269   0.0000       2.133770        58.0628 
 270   0.0000       2.144087        58.3436 
 271   0.0000       2.181711        59.3674 
 272   0.0000       2.190118        59.5961 
 273   0.0000       2.216426        60.3120 
 274   0.0000       2.223772        60.5119 
 275   0.0000       2.230564        60.6967 
 276   0.0000       2.250940        61.2512 
 277   0.0000       2.267425        61.6998 
 278   0.0000       2.277126        61.9637 
 279   0.0000       2.281680        62.0877 
 280   0.0000       2.293908        62.4204 
 281   0.0000       2.304035        62.6960 
 282   0.0000       2.315779        63.0156 
 283   0.0000       2.326600        63.3100 
 284   0.0000       2.337736        63.6130 
 285   0.0000       2.354523        64.0698 
 286   0.0000       2.360228        64.2251 
 287   0.0000       2.369401        64.4747 
 288   0.0000       2.390609        65.0518 
 289   0.0000       2.397272        65.2331 
 290   0.0000       2.422646        65.9236 
 291   0.0000       2.429894        66.1208 
 292   0.0000       2.439645        66.3861 
 293   0.0000       2.456316        66.8398 
 294   0.0000       2.469645        67.2025 
 295   0.0000       2.482806        67.5606 
 296   0.0000       2.497304        67.9551 
 297   0.0000       2.503289        68.1179 
 298   0.0000       2.513704        68.4014 
 299   0.0000       2.523776        68.6754 
 300   0.0000       2.540547        69.1318 
 301   0.0000       2.546292        69.2881 
 302   0.0000       2.547760        69.3281 
 303   0.0000       2.562171        69.7202 
 304   0.0000       2.578727        70.1707 
 305   0.0000       2.595671        70.6318 
 306   0.0000       2.600378        70.7599 
 307   0.0000       2.609659        71.0124 
 308   0.0000       2.613370        71.1134 
 309   0.0000       2.621072        71.3230 
 310   0.0000       2.644150        71.9510 
 311   0.0000       2.651661        72.1554 
 312   0.0000       2.659985        72.3819 
 313   0.0000       2.667064        72.5745 
 314   0.0000       2.689099        73.1741 
 315   0.0000       2.693511        73.2942 
 316   0.0000       2.713103        73.8273 
 317   0.0000       2.730327        74.2960 
 318   0.0000       2.731632        74.3315 
 319   0.0000       2.746864        74.7460 
 320   0.0000       2.752945        74.9115 
 321   0.0000       2.759449        75.0884 
 322   0.0000       2.784881        75.7805 
 323   0.0000       2.788064        75.8671 
 324   0.0000       2.793351        76.0110 
 325   0.0000       2.811460        76.5037 
 326   0.0000       2.823270        76.8251 
 327   0.0000       2.830634        77.0255 
 328   0.0000       2.841855        77.3308 
 329   0.0000       2.853966        77.6604 
 330   0.0000       2.877325        78.2960 
 331   0.0000       2.893598        78.7388 
 332   0.0000       2.917890        79.3998 
 333   0.0000       2.932087        79.7861 
 334   0.0000       2.938401        79.9579 
 335   0.0000       2.947404        80.2029 
 336   0.0000       2.961428        80.5846 
 337   0.0000       2.982544        81.1591 
 338   0.0000       3.001563        81.6767 
 339   0.0000       3.015769        82.0633 
 340   0.0000       3.035220        82.5925 
 341   0.0000       3.050898        83.0192 
 342   0.0000       3.063319        83.3572 
 343   0.0000       3.087543        84.0163 
 344   0.0000       3.101742        84.4027 
 345   0.0000       3.112967        84.7081 
 346   0.0000       3.136324        85.3437 
 347   0.0000       3.190574        86.8199 
 348   0.0000       3.700920       100.7072 
 349   0.0000       3.736645       101.6793 
 350   0.0000       3.777816       102.7996 
 351   0.0000       3.789117       103.1071 
 352   0.0000       3.860197       105.0413 
 353   0.0000       3.866667       105.2174 
 354   0.0000       3.895069       105.9902 
 355   0.0000       3.931094       106.9705 
 356   0.0000       3.951188       107.5173 
 357   0.0000       3.967717       107.9671 
 358   0.0000       3.976563       108.2078 
 359   0.0000       3.986846       108.4876 
 360   0.0000       3.998614       108.8078 
 361   0.0000       4.030570       109.6774 
 362   0.0000       4.044723       110.0625 
 363   0.0000       4.048864       110.1752 
 364   0.0000       4.066413       110.6527 
 365   0.0000       4.085431       111.1702 
 366   0.0000       4.107353       111.7668 
 367   0.0000       4.133258       112.4717 
 368   0.0000       4.148987       112.8997 
 369   0.0000       4.168459       113.4295 
 370   0.0000       4.181984       113.7976 
 371   0.0000       4.185721       113.8993 
 372   0.0000       4.199085       114.2629 
 373   0.0000       4.206225       114.4572 
 374   0.0000       4.218180       114.7825 
 375   0.0000       4.234599       115.2293 
 376   0.0000       4.241483       115.4166 
 377   0.0000       4.246700       115.5586 
 378   0.0000       4.255173       115.7891 
 379   0.0000       4.272776       116.2681 
 380   0.0000       4.276529       116.3703 
 381   0.0000       4.294556       116.8608 
 382   0.0000       4.304943       117.1435 
 383   0.0000       4.310306       117.2894 
 384   0.0000       4.335763       117.9821 
 385   0.0000       4.345961       118.2596 
 386   0.0000       4.366210       118.8106 
 387   0.0000       4.373842       119.0183 
 388   0.0000       4.404945       119.8646 
 389   0.0000       4.427420       120.4762 
 390   0.0000       4.433063       120.6298 
 391   0.0000       4.434195       120.6606 
 392   0.0000       4.460235       121.3692 
 393   0.0000       4.472218       121.6952 
 394   0.0000       4.479597       121.8960 
 395   0.0000       4.486375       122.0805 
 396   0.0000       4.504210       122.5658 
 397   0.0000       4.514936       122.8577 
 398   0.0000       4.534039       123.3775 
 399   0.0000       4.542087       123.5965 
 400   0.0000       4.550917       123.8368 
 401   0.0000       4.573844       124.4606 
 402   0.0000       4.581785       124.6767 
 403   0.0000       4.585604       124.7806 
 404   0.0000       4.599519       125.1593 
 405   0.0000       4.617792       125.6565 
 406   0.0000       4.626394       125.8906 
 407   0.0000       4.635597       126.1410 
 408   0.0000       4.666161       126.9727 
 409   0.0000       4.671745       127.1247 
 410   0.0000       4.688533       127.5815 
 411   0.0000       4.727007       128.6284 
 412   0.0000       4.739823       128.9771 
 413   0.0000       4.743986       129.0904 
 414   0.0000       4.766703       129.7086 
 415   0.0000       4.780621       130.0873 
 416   0.0000       4.818654       131.1222 
 417   0.0000       4.838627       131.6657 
 418   0.0000       4.846233       131.8727 
 419   0.0000       4.869130       132.4958 
 420   0.0000       4.902994       133.4172 
 421   0.0000       4.920816       133.9022 
 422   0.0000       4.946449       134.5997 
 423   0.0000       4.960203       134.9740 
 424   0.0000       4.996743       135.9683 
 425   0.0000       5.004634       136.1830 
 426   0.0000       5.059227       137.6686 
 427   0.0000       5.073693       138.0622 
 428   0.0000       5.081194       138.2663 
 429   0.0000       5.097138       138.7002 
 430   0.0000       5.112204       139.1101 
 431   0.0000       5.144205       139.9809 
 432   0.0000       5.149260       140.1185 
 433   0.0000       5.160302       140.4190 
 434   0.0000       5.173394       140.7752 
 435   0.0000       5.197233       141.4239 
 436   0.0000       5.203657       141.5987 
 437   0.0000       5.221744       142.0909 
 438   0.0000       5.231062       142.3444 
 439   0.0000       5.235536       142.4662 
 440   0.0000       5.249230       142.8388 
 441   0.0000       5.253052       142.9428 
 442   0.0000       5.264538       143.2554 
 443   0.0000       5.287312       143.8751 
 444   0.0000       5.300527       144.2347 
 445   0.0000       5.304557       144.3443 
 446   0.0000       5.319890       144.7616 
 447   0.0000       5.335048       145.1740 
 448   0.0000       5.354734       145.7097 
 449   0.0000       5.398411       146.8982 
 450   0.0000       5.454878       148.4348 
 451   0.0000       5.483850       149.2231 
 452   0.0000       5.487452       149.3212 
 453   0.0000       5.522337       150.2704 
 454   0.0000       5.589870       152.1081 
 455   0.0000       5.631385       153.2378 
 456   0.0000       5.664717       154.1448 
 457   0.0000       5.682612       154.6317 
 458   0.0000       5.717840       155.5903 
 459   0.0000       5.795043       157.6911 
 460   0.0000       5.804203       157.9404 
 461   0.0000       5.837362       158.8427 
 462   0.0000       6.088494       165.6763 
 463   0.0000       6.125065       166.6715 
 464   0.0000       6.189964       168.4375 
 465   0.0000       6.238808       169.7666 
 466   0.0000       6.248222       170.0228 
 467   0.0000       6.297017       171.3506 
 468   0.0000       6.321369       172.0132 
 469   0.0000       6.332937       172.3280 
 470   0.0000       6.369167       173.3139 
 471   0.0000       6.383961       173.7164 
 472   0.0000       6.389251       173.8603 
 473   0.0000       6.460521       175.7997 
 474   0.0000       6.607604       179.8021 
 475   0.0000       6.617129       180.0612 
 476   0.0000       6.644116       180.7956 
 477   0.0000       6.649293       180.9365 
 478   0.0000       6.689225       182.0231 
 479   0.0000       6.712732       182.6627 
 480   0.0000       6.738739       183.3704 
 481   0.0000       6.762996       184.0305 
 482   0.0000       6.775467       184.3698 
 483   0.0000       6.822372       185.6462 
 484   0.0000       6.837312       186.0527 
[...]
MAX gradient                       ...    0.0979026776

-------
TIMINGS
-------

Total SCF gradient time            ...        2.355 sec

One electron gradient       ....       0.055 sec  (  2.3%)
Prescreening matrices       ....       0.096 sec  (  4.1%)
RI-J Coulomb gradient       ....       0.531 sec  ( 22.5%)
XC gradient                 ....       1.255 sec  ( 53.3%)
------------------------------------------------------------------------------
                         ORCA GEOMETRY RELAXATION STEP
------------------------------------------------------------------------------

Reading the OPT-File                    .... done
Getting information on internals        .... done
Copying old internal coords+grads       .... done
Making the new internal coordinates     .... (new redundants).... done
Validating the new internal coordinates .... (new redundants).... angle reaching linearity!  179.7634
done

          !!!!!!!!!!!!!!!!!!!!!!!!!!!!!!!!!!!!!!!!!!!!!!!!!!!!!!!!!!!!!!!!!!!!!!!!!!!!!!
          !   SERIOUS PROBLEM WITH INTERNALS - ANGLE IS APPROACHING 180 OR 0 DEGREES   !
          !                       REBUILDING A NEW SET OF INTERNALS                    !
          !!!!!!!!!!!!!!!!!!!!!!!!!!!!!!!!!!!!!!!!!!!!!!!!!!!!!!!!!!!!!!!!!!!!!!!!!!!!!!

Making redundant internal coordinates   ... (new redundants).... done
New number of internal coordinates      ... 178
Reading the OPT-File                    .... done
Getting information on internals        .... done
Copying old internal coords+grads       .... done
Making the new internal coordinates     .... (new redundants).... done
Validating the new internal coordinates .... (new redundants).... done
Calculating the B-matrix                .... done
Calculating the G,G- and P matrices     .... done
Transforming gradient to internals      .... done
Projecting the internal gradient        .... done
Number of atoms                         ....  18
Number of internal coordinates          .... 178
Current Energy                          ....  -458.474600122 Eh
Current gradient norm                   ....     0.220720715 Eh/bohr
Maximum allowed component of the step   ....  0.300
Current trust radius                    ....  0.300
Evaluating the initial hessian          ....  (read) 
Using the updated cartesian Hessian...        done
Diagonalizing the Hessian               .... done
Dimension of the hessian                .... 178
Lowest eigenvalues of the non projected Hessian:
 -0.000324384 -0.000000000 -0.000000000 -0.000000000 -0.000000000
done
Projecting the Hessian                  .... done
Forming the augmented Hessian           .... done
Diagonalizing the augmented Hessian     .... done
Last element of RFO vector              ....  0.748666523
Lowest eigenvalues of augmented Hessian:
 -0.099064947 -0.000218610  0.000663345  0.006416038  0.009560855
Length of the computed step             ....  0.885503441
Warning: the length of the step is outside the trust region - taking restricted step instead
The input lambda is                     ....    -0.099065
   iter:   1  x=   -0.145769  g=   14.861948 f(x)=     0.694116
   iter:   2  x=   -0.205823  g=    4.850829 f(x)=     0.291310
   iter:   3  x=   -0.268220  g=    1.794611 f(x)=     0.111978
   iter:   4  x=   -0.309631  g=    0.840672 f(x)=     0.034813
   iter:   5  x=   -0.321064  g=    0.558423 f(x)=     0.006384
   iter:   6  x=   -0.321699  g=    0.503737 f(x)=     0.000320
   iter:   7  x=   -0.321701  g=    0.500917 f(x)=     0.000001
   iter:   8  x=   -0.321701  g=    0.500909 f(x)=     0.000000
   iter:   9  x=   -0.321701  g=    0.500909 f(x)=     0.000000
The output lambda is                    ....    -0.321701 (9 iterations)
The final length of the internal step   ....  0.300000000
Converting the step to cartesian space:
 Initial RMS(Int)=    0.0224859507
Transforming coordinates:
 Iter   0:  RMS(Cart)=    0.1071091687 RMS(Int)=    0.0225746359
 Iter   1:  RMS(Cart)=    0.0025716145 RMS(Int)=    0.0009381284
 Iter   2:  RMS(Cart)=    0.0001265353 RMS(Int)=    0.0000361744
 Iter   3:  RMS(Cart)=    0.0000090640 RMS(Int)=    0.0000042061
 Iter   4:  RMS(Cart)=    0.0000006444 RMS(Int)=    0.0000002257
 Iter   5:  RMS(Cart)=    0.0000000529 RMS(Int)=    0.0000000292
done
Storing new coordinates                 .... done

                                .--------------------.
          ----------------------|Geometry convergence|-------------------------
          Item                value                   Tolerance       Converged
          ---------------------------------------------------------------------
          RMS gradient        0.0177827563            0.0001000000      NO
          MAX gradient        0.0754079697            0.0003000000      NO
          RMS step            0.0224859507            0.0020000000      NO
          MAX step            0.0807349369            0.0040000000      NO
          ........................................................
          Max(Bonds)      0.0427      Max(Angles)    3.43
          Max(Dihed)        2.50      Max(Improp)    0.00
          ---------------------------------------------------------------------

The optimization has not yet converged - more geometry cycles are needed


    ---------------------------------------------------------------------------
                         Redundant Internal Coordinates
                            (Angstroem and degrees)

        Definition                    Value    dE/dq     Step     New-Value
    ----------------------------------------------------------------------------
     1. B(H   1,O   0)                0.9493  0.020293 -0.0119    0.9374   
     2. B(H   2,O   0)                0.9861  0.036709  0.0015    0.9876   
     3. B(H   4,O   3)                0.8982 -0.042861  0.0132    0.9113   
     4. B(H   5,O   3)                0.9745  0.022599  0.0011    0.9756   
     5. B(O   6,H   4)                3.0506 -0.005807  0.0262    3.0768   
     6. B(H   7,O   6)                0.9860  0.025572  0.0198    1.0058   
     7. B(H   8,O   6)                0.9780  0.012194 -0.0049    0.9731   
     8. B(H   8,O   3)                2.3693 -0.019704  0.0281    2.3974   
     9. B(H   8,H   4)                2.3592 -0.016521  0.0232    2.3824   
    10. B(O   9,H   1)                2.5330  0.010653  0.0001    2.5331   
    11. B(H  10,H   1)                3.0163 -0.033266  0.0138    3.0301   
    12. B(H  10,O   9)                0.9632 -0.014071  0.0021    0.9652   
    13. B(H  11,H   1)                2.5139  0.041679 -0.0290    2.4849   
    14. B(H  11,O   9)                0.9460 -0.020267  0.0104    0.9564   
    15. B(O  12,H  10)                1.8285 -0.032179  0.0193    1.8478   
    16. B(H  13,H   8)                2.0507 -0.025081  0.0427    2.0934   
    17. B(H  13,H   7)                2.0002  0.011625 -0.0193    1.9809   
    18. B(H  13,O   6)                1.6873 -0.015326  0.0176    1.7048   
    19. B(H  13,O  12)                1.0613 -0.000501 -0.0107    1.0507   
    20. B(H  14,O  12)                1.0056  0.006736 -0.0244    0.9811   
    21. B(H  14,H  10)                1.6931  0.030574 -0.0109    1.6822   
    22. B(O  15,H  11)                2.1034 -0.006927  0.0125    2.1160   
    23. B(H  16,H  11)                2.3445 -0.012559  0.0293    2.3738   
    24. B(H  16,O  15)                0.9072 -0.041128  0.0097    0.9169   
    25. B(H  17,O  15)                0.9687  0.020910 -0.0138    0.9548   
    26. A(H   1,O   0,H   2)          117.50  0.027936   -3.43    114.07   
    27. A(H  10,H   1,H  11)           34.67 -0.004574    0.26     34.94   
    28. A(O   9,H   1,H  11)           21.60 -0.006292    0.35     21.96   
    29. A(O   0,H   1,H  10)          136.13 -0.004638   -0.30    135.83   
    30. A(O   9,H   1,H  10)           17.34  0.002334   -0.16     17.18   
    31. A(O   0,H   1,H  11)          146.72  0.001211   -0.61    146.11   
    32. A(O   0,H   1,O   9)          151.83 -0.002085   -0.53    151.30   
    33. A(H   5,O   3,H   8)          131.94 -0.008759   -0.45    131.49   
    34. A(H   4,O   3,H   8)           78.42  0.005653   -0.34     78.08   
    35. A(H   4,O   3,H   5)          135.84  0.005664    0.04    135.88   
    36. A(O   3,H   4,O   6)           94.10  0.004306   -0.07     94.03   
    37. A(O   3,H   4,H   8)           79.68  0.002543    0.25     79.94   
    38. A(O   6,H   4,H   8)           14.81  0.001912   -0.35     14.47   
    39. A(H   4,O   6,H  13)          120.44 -0.014203    2.24    122.68   
    40. A(H   7,O   6,H   8)          160.54  0.005901    1.94    162.48   
    41. A(H   4,O   6,H   7)          122.73  0.008287    2.35    125.08   
    42. A(H   7,O   6,H  13)           93.13  0.007125   -3.12     90.01   
    43. A(H   8,O   6,H  13)           97.00 -0.012336    2.16     99.15   
    44. A(H   4,O   6,H   8)           38.08 -0.002409   -0.37     37.71   
    45. A(O   6,H   7,H  13)           57.38 -0.012926    2.06     59.44   
    46. A(O   6,H   8,H  13)           54.75  0.004499   -1.22     53.53   
    47. A(H   4,H   8,O   6)          127.10  0.000497    0.72    127.82   
    48. A(O   3,H   8,H  13)          145.91 -0.004811    1.23    147.14   
    49. A(O   3,H   8,O   6)          148.10 -0.007390    0.82    148.92   
    50. A(H   4,H   8,H  13)          141.73 -0.004921    1.41    143.14   
    51. A(O   3,H   8,H   4)           21.90 -0.008195    0.08     21.98   
    52. A(H   1,O   9,H  11)           78.06  0.019960   -1.89     76.17   
    53. A(H  10,O   9,H  11)          128.05 -0.010698    1.01    129.06   
    54. A(H   1,O   9,H  10)          111.07 -0.024325    0.94    112.02   
    55. A(O  12,H  10,H  14)           32.90  0.004736   -1.05     31.85   
    56. A(H   1,H  10,H  14)           84.29 -0.029279    0.14     84.43   
    57. A(H   1,H  10,O   9)           51.59  0.021991   -0.79     50.80   
    58. A(O   9,H  10,H  14)          109.99 -0.027812    1.09    111.08   
    59. A(H   1,H  10,O  12)          101.60 -0.043442    0.44    102.04   
    60. A(O   9,H  10,O  12)          141.71 -0.026596    0.16    141.88   
    61. A(H   1,H  11,O   9)           80.34 -0.013668    1.54     81.87   
    62. A(O  15,H  11,H  16)           22.71 -0.009072   -0.07     22.64   
    63. A(H   1,H  11,H  16)           88.45  0.012858   -0.64     87.81   
    64. A(O   9,H  11,H  16)          145.91  0.000538    0.48    146.39   
    65. A(H   1,H  11,O  15)           97.97  0.011510   -1.43     96.54   
    66. A(O   9,H  11,O  15)          168.36 -0.008580    0.47    168.84   
    67. A(H  13,O  12,H  14)          131.91 -0.032033    1.13    133.04   
    68. A(H  10,O  12,H  14)           66.13  0.030125   -1.34     64.79   
    69. A(H  10,O  12,H  13)          123.13 -0.075408    2.29    125.42   
    70. A(O   6,H  13,H   7)           29.48  0.005801    1.06     30.55   
    71. A(H   7,H  13,O  12)          110.60 -0.022788   -0.19    110.41   
    72. A(O   6,H  13,O  12)          132.70 -0.014556    0.91    133.61   
    73. A(H   7,H  13,H   8)           57.07  0.013757    0.26     57.33   
    74. A(O   6,H  13,H   8)           28.25  0.007837   -0.94     27.32   
    75. A(H   8,H  13,O  12)          153.15 -0.003061   -0.17    152.98   
    76. A(H  10,H  14,O  12)           80.98 -0.034861    2.38     83.36   
    77. A(H  16,O  15,H  17)          114.49 -0.009936   -0.59    113.89   
    78. A(H  11,O  15,H  17)          141.99  0.003881   -0.19    141.80   
    79. A(H  11,O  15,H  16)           93.75  0.007920    0.95     94.69   
    80. A(H  11,H  16,O  15)           63.54  0.001152   -0.88     62.66   
    81. D(H  11,H   1,O   0,H   2)    -71.32 -0.009248    1.22    -70.10   
    82. D(H  10,H   1,O   0,H   2)   -126.03  0.004139    1.20   -124.82   
    83. D(O   9,H   1,O   0,H   2)   -113.23  0.003226    1.25   -111.98   
    84. D(O   6,H   4,O   3,H   8)      3.42  0.000846   -0.14      3.28   
    85. D(H   8,H   4,O   3,H   5)   -140.20  0.002022    1.19   -139.01   
    86. D(O   6,H   4,O   3,H   5)   -136.78  0.002868    1.04   -135.73   
    87. D(H   8,O   6,H   4,O   3)    -13.28 -0.001743    0.25    -13.04   
    88. D(H   7,O   6,H   4,H   8)   -175.55 -0.000510    0.20   -175.35   
    89. D(H   7,O   6,H   4,O   3)    171.17 -0.002253    0.45    171.61   
    90. D(H  13,O   6,H   4,H   8)    -58.61  0.004181   -0.02    -58.63   
    91. D(H  13,O   6,H   4,O   3)    -71.90  0.002438    0.23    -71.67   
    92. D(H  13,H   7,O   6,H   4)    129.66 -0.007661    1.66    131.33   
    93. D(H  13,H   7,O   6,H   8)    121.40 -0.008687    0.56    121.97   
    94. D(O   6,H   8,O   3,H   5)    122.58  0.010562   -0.62    121.96   
    95. D(H  13,H   8,O   3,H   4)     94.59 -0.013703    1.39     95.98   
    96. D(O   3,H   8,O   6,H   7)     20.76 -0.003313    1.38     22.15   
    97. D(H   4,H   8,O   6,H   7)     11.30  0.000962    1.31     12.61   
    98. D(H   4,H   8,O   6,H  13)    132.14 -0.004732    1.15    133.29   
    99. D(H  13,H   8,O   6,H   4)   -132.14  0.004732   -1.15   -133.29   
   100. D(O   6,H   8,O   3,H   4)    -20.58  0.002117    0.11    -20.47   
   101. D(O   6,H   8,H   4,O   3)    166.53 -0.001584    0.26    166.79   
   102. D(H  13,H   8,O   3,H   5)   -122.24 -0.005258    0.65   -121.60   
   103. D(H  13,H   8,H   4,O   6)     77.90  0.005700   -0.54     77.36   
   104. D(H  13,H   8,O   6,H   7)   -120.84  0.005694    0.16   -120.68   
   105. D(O   3,H   8,O   6,H  13)    141.60 -0.009007    1.23    142.83   
   106. D(O   3,H   8,O   6,H   4)      9.46 -0.004275    0.07      9.54   
   107. D(H   4,H   8,O   3,H   5)    143.17  0.008445   -0.74    142.43   
   108. D(H  13,H   8,H   4,O   3)   -115.56  0.004117   -0.28   -115.85   
   109. D(O   3,H   8,H   4,O   6)   -166.53  0.001584   -0.26   -166.79   
   110. D(H  10,O   9,H   1,H  11)   -126.42  0.005546   -0.49   -126.91   
   111. D(H  10,O   9,H   1,O   0)    -31.01  0.004009   -0.61    -31.62   
   112. D(H  11,O   9,H   1,H  10)    126.42 -0.005546    0.49    126.91   
   113. D(H  11,O   9,H   1,O   0)     95.40 -0.001537   -0.11     95.29   
   114. D(H  14,H  10,O   9,H   1)     64.94  0.002379   -1.55     63.40   
   115. D(H  14,H  10,O   9,H  11)    -26.21 -0.000681   -0.18    -26.38   
   116. D(O  12,H  10,O   9,H   1)     53.82 -0.010561   -0.90     52.92   
   117. D(O  12,H  10,O   9,H  11)    -37.33 -0.013621    0.46    -36.86   
   118. D(H  14,H  10,H   1,O   9)   -121.18  0.023396   -1.87   -123.05   
   119. D(H  14,H  10,H   1,O   0)     38.27  0.026245   -2.50     35.77   
   120. D(O  12,H  10,H   1,H  11)   -117.91  0.006962   -0.37   -118.28   
   121. D(O  12,H  10,H   1,O   9)   -149.30  0.010126   -0.46   -149.76   
   122. D(O  12,H  10,H   1,O   0)     10.15  0.012975   -1.09      9.06   
   123. D(H  14,H  10,H   1,H  11)    -89.79  0.020232   -1.78    -91.58   
   124. D(O   9,H  10,H   1,H  11)     31.39 -0.003164    0.09     31.48   
   125. D(O   9,H  10,H   1,O   0)    159.45  0.002849   -0.63    158.82   
   126. D(H   1,H  10,O   9,H  11)    -91.15 -0.003060    1.37    -89.78   
   127. D(H  16,H  11,O   9,H  10)     35.03 -0.018253   -1.15     33.88   
   128. D(O  15,H  11,O   9,H   1)    -82.57  0.002517   -0.00    -82.58   
   129. D(O  15,H  11,O   9,H  10)     24.96 -0.013601   -0.21     24.75   
   130. D(H  16,H  11,H   1,H  10)    122.75 -0.008153    0.83    123.57   
   131. D(H  16,H  11,H   1,O   9)    147.67  0.000298    0.25    147.92   
   132. D(H  16,H  11,H   1,O   0)     26.60  0.010061    0.36     26.96   
   133. D(O  15,H  11,H   1,H  10)    143.42 -0.017306    1.09    144.52   
   134. D(H   1,H  11,O   9,H  10)    107.53 -0.016118   -0.20    107.33   
   135. D(O  15,H  11,H   1,O   9)    168.35 -0.008856    0.52    168.86   
   136. D(O  15,H  11,H   1,O   0)     47.28  0.000908    0.62     47.90   
   137. D(O   9,H  11,H   1,H  10)    -24.93 -0.008450    0.58    -24.35   
   138. D(H  16,H  11,O   9,H   1)    -72.50 -0.002135   -0.95    -73.45   
   139. D(O   9,H  11,H   1,O   0)   -121.07  0.009764    0.11   -120.96   
   140. D(H  14,O  12,H  10,O   9)     19.50  0.024296   -0.72     18.77   
   141. D(H  13,O  12,H  10,H  14)   -125.70  0.017962   -0.52   -126.22   
   142. D(H  13,O  12,H  10,H   1)    -65.98  0.042931   -2.26    -68.24   
   143. D(H  13,O  12,H  10,O   9)   -106.20  0.042259   -1.25   -107.45   
   144. D(H  14,O  12,H  10,H   1)     59.72  0.024969   -1.73     57.98   
   145. D(H   8,H  13,O  12,H  14)     47.83  0.011387   -0.47     47.36   
   146. D(H   7,H  13,O  12,H  10)     77.09 -0.015129   -0.15     76.94   
   147. D(H   7,H  13,O  12,H  14)     -9.26  0.024385   -0.82    -10.08   
   148. D(O   6,H  13,O  12,H  10)    100.37 -0.020554    0.42    100.78   
   149. D(O   6,H  13,O  12,H  14)     14.01  0.018961   -0.25     13.76   
   150. D(H   7,H  13,H   8,H   4)    -97.60 -0.009477   -0.00    -97.60   
   151. D(H   7,H  13,H   8,O   3)   -134.48  0.009682   -1.42   -135.90   
   152. D(O   6,H  13,H   8,H   4)   -107.27 -0.007507    0.65   -106.61   
   153. D(O   6,H  13,H   8,O   3)   -144.16  0.011652   -0.76   -144.92   
   154. D(O  12,H  13,H   8,H   4)   -167.03  0.013865   -0.36   -167.39   
   155. D(O  12,H  13,H   8,O   3)    156.08  0.033024   -1.78    154.30   
   156. D(O  12,H  13,H   8,O   6)    -59.76  0.021372   -1.01    -60.78   
   157. D(H   8,H  13,H   7,O   6)     -9.30  0.001185    1.23     -8.07   
   158. D(H   7,H  13,H   8,O   6)      9.67 -0.001970   -0.66      9.01   
   159. D(O  12,H  13,H   7,O   6)    143.84  0.006895    1.02    144.87   
   160. D(H   8,H  13,O   6,H   4)     32.04 -0.004467   -0.12     31.92   
   161. D(H   8,H  13,O   6,H   7)    163.35  0.003860    1.67    165.02   
   162. D(H   7,H  13,O   6,H   4)   -131.31 -0.008328   -1.79   -133.10   
   163. D(H   7,H  13,O   6,H   8)   -163.35 -0.003860   -1.67   -165.02   
   164. D(O  12,H  13,O   6,H   4)    179.96  0.007971   -1.23    178.73   
   165. D(O  12,H  13,O   6,H   8)    147.92  0.012438   -1.11    146.82   
   166. D(H   8,H  13,O  12,H  10)    134.18 -0.028127    0.21    134.39   
   167. D(O  12,H  13,O   6,H   7)    -48.73  0.016298    0.56    -48.17   
   168. D(H  10,H  14,O  12,H  13)    113.94 -0.075128    1.94    115.88   
   169. D(O  12,H  14,H  10,H   1)   -121.77  0.042661   -1.80   -123.58   
   170. D(O  12,H  14,H  10,O   9)   -167.29  0.020798   -0.42   -167.71   
   171. D(H  17,O  15,H  11,H  16)    139.32 -0.000259    0.28    139.60   
   172. D(H  17,O  15,H  11,H   1)     73.24  0.004773   -1.64     71.60   
   173. D(H  17,O  15,H  11,O   9)    154.02 -0.001655   -1.26    152.76   
   174. D(H  16,O  15,H  11,H   1)    -66.08  0.005031   -1.92    -68.00   
   175. D(H  16,O  15,H  11,O   9)     14.70 -0.001396   -1.54     13.16   
   176. D(H  11,H  16,O  15,H  17)   -153.83 -0.004517   -0.17   -154.00   
   177. D(O  15,H  16,H  11,H   1)    115.10  0.008951   -2.29    112.81   
   178. D(O  15,H  16,H  11,O   9)   -174.76  0.003405   -0.68   -175.44   
    ----------------------------------------------------------------------------




    ----------------------------------------------------------------------------
                                   ERROR !!!
       The optimization did not converge but reached the maximum 
       number of optimization cycles.
       As a subsequent Frequencies calculation has been requested
       ORCA will abort at this point of the run.
       Please restart the calculation with the lowest energy geometry and/or
       a larger maxiter for the geometry optimization.
    ----------------------------------------------------------------------------


[file orca_main/run.cpp, line 10680]: ORCA finished with error return - aborting the run
[file orca_main/run.cpp, line 10680]: ORCA finished with error return - aborting the run
