
                                 *****************
                                 * O   R   C   A *
                                 *****************

           --- An Ab Initio, DFT and Semiempirical electronic structure package ---

                  #######################################################
                  #                        -***-                        #
                  #          Department of theory and spectroscopy      #
                  #               Directorship: Frank Neese             #
                  #        Max Planck Institute fuer Kohlenforschung    #
                  #                Kaiser Wilhelm Platz 1               #
                  #                 D-45470 Muelheim/Ruhr               #
                  #                      Germany                        #
                  #                                                     #
                  #                  All rights reserved                #
                  #                        -***-                        #
                  #######################################################


                         Program Version 4.2.0 -  RELEASE  -


 With contributions from (in alphabetic order):
   Daniel Aravena         : Magnetic Suceptibility
   Michael Atanasov       : Ab Initio Ligand Field Theory (pilot matlab implementation)
   Alexander A. Auer      : GIAO ZORA, VPT2
   Ute Becker             : Parallelization
   Giovanni Bistoni       : ED, misc. LED, open-shell LED, HFLED
   Martin Brehm           : Molecular dynamics
   Dmytro Bykov           : SCF Hessian
   Vijay G. Chilkuri      : MRCI spin determinant printing, contributions to CSF-ICE
   Dipayan Datta          : RHF DLPNO-CCSD density
   Achintya Kumar Dutta   : EOM-CC, STEOM-CC
   Dmitry Ganyushin       : Spin-Orbit,Spin-Spin,Magnetic field MRCI
   Miquel Garcia          : C-PCM Hessian, Gaussian charge scheme
   Yang Guo               : DLPNO-NEVPT2, CIM, IAO-localization
   Andreas Hansen         : Spin unrestricted coupled pair/coupled cluster methods
   Benjamin Helmich-Paris : CASSCF linear response (MC-RPA)
   Lee Huntington         : MR-EOM, pCC
   Robert Izsak           : Overlap fitted RIJCOSX, COSX-SCS-MP3, EOM
   Christian Kollmar      : KDIIS, OOCD, Brueckner-CCSD(T), CCSD density
   Simone Kossmann        : Meta GGA functionals, TD-DFT gradient, OOMP2, MP2 Hessian
   Martin Krupicka        : AUTO-CI
   Lucas Lang             : DCDCAS
   Dagmar Lenk            : GEPOL surface, SMD
   Dimitrios Liakos       : Extrapolation schemes; Compound Job, initial MDCI parallelization
   Dimitrios Manganas     : Further ROCIS development; embedding schemes
   Dimitrios Pantazis     : SARC Basis sets
   Taras Petrenko         : DFT Hessian,TD-DFT gradient, ASA, ECA, R-Raman, ABS, FL, XAS/XES, NRVS
   Peter Pinski           : DLPNO-MP2, DLPNO-MP2 Gradient
   Christoph Reimann      : Effective Core Potentials
   Marius Retegan         : Local ZFS, SOC
   Christoph Riplinger    : Optimizer, TS searches, QM/MM, DLPNO-CCSD(T), (RO)-DLPNO pert. Triples
   Tobias Risthaus        : Range-separated hybrids, TD-DFT gradient, RPA, STAB
   Michael Roemelt        : Original ROCIS implementation
   Masaaki Saitow         : Open-shell DLPNO-CCSD energy and density
   Barbara Sandhoefer     : DKH picture change effects
   Avijit Sen             : IP-ROCIS
   Kantharuban Sivalingam : CASSCF convergence, NEVPT2, FIC-MRCI
   Bernardo de Souza      : ESD, SOC TD-DFT
   Georgi Stoychev        : AutoAux, RI-MP2 NMR
   Willem Van den Heuvel  : Paramagnetic NMR
   Boris Wezisla          : Elementary symmetry handling
   Frank Wennmohs         : Technical directorship


 We gratefully acknowledge several colleagues who have allowed us to
 interface, adapt or use parts of their codes:
   Stefan Grimme, W. Hujo, H. Kruse,             : VdW corrections, initial TS optimization,
                  C. Bannwarth                     DFT functionals, gCP, sTDA/sTD-DF
   Ed Valeev, F. Pavosevic, A. Kumar             : LibInt (2-el integral package), F12 methods
   Garnet Chan, S. Sharma, J. Yang, R. Olivares  : DMRG
   Ulf Ekstrom                                   : XCFun DFT Library
   Mihaly Kallay                                 : mrcc  (arbitrary order and MRCC methods)
   Andreas Klamt, Michael Diedenhofen            : otool_cosmo (COSMO solvation model)
   Jiri Pittner, Ondrej Demel                    : Mk-CCSD
   Frank Weinhold                                : gennbo (NPA and NBO analysis)
   Christopher J. Cramer and Donald G. Truhlar   : smd solvation model
   Lars Goerigk                                  : TD-DFT with DH, B97 family of functionals
   V. Asgeirsson, H. Jonsson                     : NEB implementation
   FAccTs GmbH                                   : IRC, NEB, NEB-TS, Multilevel, MM, QM/MM, CI optimization
   S Lehtola, MJT Oliveira, MAL Marques          : LibXC Library


 Your calculation uses the libint2 library for the computation of 2-el integrals
 For citations please refer to: http://libint.valeyev.net

 Your ORCA version has been built with support for libXC version: 4.2.3
 For citations please refer to: https://tddft.org/programs/libxc/

 This ORCA versions uses:
   CBLAS   interface :  Fast vector & matrix operations
   LAPACKE interface :  Fast linear algebra routines
   SCALAPACK package :  Parallel linear algebra routines


Your calculation utilizes the atom-pairwise dispersion correction
with the Becke-Johnson damping scheme (D3BJ)
Cite in your paper:
S.Grimme, S.Ehrlich, L.Goerigk, J Comput Chem, (2011), 32, 1456–1465 
S.Grimme, J.Antony, S.Ehrlich and H.Krieg, J.Chem.Phys., 132, (2010), 154104 
   

----- Orbital basis set information -----
Your calculation utilizes the basis: aug-cc-pV(T+d)Z 
             Al - Ar: T.H. Dunning, Jr., K. A. Peterson and A. K. Wilson, J. Chem. Phys.
                      114, 9244 (2001)

----- AuxJ basis set information -----
Your calculation utilizes the auxiliary basis: def2/J
   F. Weigend, Phys. Chem. Chem. Phys. 8, 1057 (2006).

================================================================================
                                        WARNINGS
                       Please study these warnings very carefully!
================================================================================


WARNING: Geometry Optimization
  ===> : Switching off AutoStart
         For restart on a previous wavefunction, please use MOREAD

INFO   : the flag for use of LIBINT has been found!

================================================================================
                                       INPUT FILE
================================================================================
NAME = 01_H2O.in
|  1> #
|  2> # 01_H2O tpss/aug-cc-pvt(+d)z
|  3> #
|  4> ! tpss d3bj aug-cc-pvt(+d)z def2/j grid4 nofinalgrid opt xyzfile numfreq
|  5> 
|  6> *xyz 0 1
|  7> O	0	0	0.12434822
|  8> H	0	-1.43139324	-0.98674827
|  9> H	0	1.43139324	-0.98674827
| 10> *
| 11> 
| 12> %maxcore 5000
| 13> 
| 14> %pal
| 15> nprocs 24
| 16> end
| 17> 
| 18> 
| 19>                          ****END OF INPUT****
================================================================================

                       *****************************
                       * Geometry Optimization Run *
                       *****************************

Geometry optimization settings:
Update method            Update   .... BFGS
Choice of coordinates    CoordSys .... Z-matrix Internals
Initial Hessian          InHess   .... Almoef's Model

Convergence Tolerances:
Energy Change            TolE     ....  5.0000e-06 Eh
Max. Gradient            TolMAXG  ....  3.0000e-04 Eh/bohr
RMS Gradient             TolRMSG  ....  1.0000e-04 Eh/bohr
Max. Displacement        TolMAXD  ....  4.0000e-03 bohr
RMS Displacement         TolRMSD  ....  2.0000e-03 bohr
Strict Convergence                ....  False
------------------------------------------------------------------------------
                        ORCA OPTIMIZATION COORDINATE SETUP
------------------------------------------------------------------------------

The optimization will be done in new redundant internal coordinates
Making redundant internal coordinates   ...  (new redundants) done
Evaluating the initial hessian          ...  (Almloef) done
Evaluating the coordinates              ...  done
Calculating the B-matrix                .... done
Calculating the G-matrix                .... done
Diagonalizing the G-matrix              .... done
The first mode is                       ....    0
The number of degrees of freedom        ....    3

    -----------------------------------------------------------------
                    Redundant Internal Coordinates


    -----------------------------------------------------------------
         Definition                    Initial Value    Approx d2E/dq
    -----------------------------------------------------------------
      1. B(H   1,O   0)                  1.8120         0.022731   
      2. B(H   2,O   0)                  1.8120         0.022731   
      3. A(H   1,O   0,H   2)          104.3603         0.145455   
    -----------------------------------------------------------------

Number of atoms                         .... 3
Number of degrees of freedom            .... 3

         *************************************************************
         *                GEOMETRY OPTIMIZATION CYCLE   1            *
         *************************************************************
---------------------------------
CARTESIAN COORDINATES (ANGSTROEM)
---------------------------------
  O      0.000000    0.000000    0.124348
  H      0.000000   -1.431393   -0.986748
  H      0.000000    1.431393   -0.986748

----------------------------
CARTESIAN COORDINATES (A.U.)
----------------------------
  NO LB      ZA    FRAG     MASS         X           Y           Z
   0 O     8.0000    0    15.999    0.000000    0.000000    0.234984
   1 H     1.0000    0     1.008    0.000000   -2.704941   -1.864684
   2 H     1.0000    0     1.008    0.000000    2.704941   -1.864684

--------------------------------
INTERNAL COORDINATES (ANGSTROEM)
--------------------------------
 O      0   0   0     0.000000000000     0.00000000     0.00000000
 H      1   0   0     1.812021527910     0.00000000     0.00000000
 H      1   2   0     1.812021527910   104.36032046     0.00000000

---------------------------
INTERNAL COORDINATES (A.U.)
---------------------------
 O      0   0   0     0.000000000000     0.00000000     0.00000000
 H      1   0   0     3.424224436519     0.00000000     0.00000000
 H      1   2   0     3.424224436519   104.36032046     0.00000000

---------------------
BASIS SET INFORMATION
---------------------
There are 2 groups of distinct atoms

 Group   1 Type O   : 19s6p3d2f contracted to 5s4p3d2f pattern {88111/3111/111/11}
 Group   2 Type H   : 6s3p2d contracted to 4s3p2d pattern {3111/111/11}

Atom   0O    basis set group =>   1
Atom   1H    basis set group =>   2
Atom   2H    basis set group =>   2
---------------------------------
AUXILIARY/J BASIS SET INFORMATION
---------------------------------
There are 2 groups of distinct atoms

 Group   1 Type O   : 12s5p4d2f1g contracted to 6s4p3d1f1g pattern {711111/2111/211/2/1}
 Group   2 Type H   : 5s2p1d contracted to 3s1p1d pattern {311/2/1}

Atom   0O    basis set group =>   1
Atom   1H    basis set group =>   2
Atom   2H    basis set group =>   2


           ************************************************************
           *        Program running with 24 parallel MPI-processes    *
           *              working on a common directory               *
           ************************************************************
------------------------------------------------------------------------------
                           ORCA GTO INTEGRAL CALCULATION
                           -- RI-GTO INTEGRALS CHOSEN --
------------------------------------------------------------------------------

                         BASIS SET STATISTICS AND STARTUP INFO

Gaussian basis set:
 # of primitive gaussian shells          ...   52
 # of primitive gaussian functions       ...  116
 # of contracted shells                  ...   32
 # of contracted basis functions         ...   92
 Highest angular momentum                ...    3
 Maximum contraction depth               ...    8
Auxiliary gaussian basis set:
 # of primitive gaussian shells          ...   40
 # of primitive gaussian functions       ...  102
 # of contracted shells                  ...   25
 # of contracted aux-basis functions     ...   71
 Highest angular momentum                ...    4
 Maximum contraction depth               ...    7
Ratio of auxiliary to basis functions    ...  0.77
Integral package used                  ... LIBINT
 One Electron integrals                  ... done
 Ordering auxiliary basis shells         ... done
 Integral threshhold             Thresh  ...  2.500e-11
 Primitive cut-off               TCut    ...  2.500e-12
 Pre-screening matrix                    ... done
 Shell pair data                         ... 
 Ordering of the shell pairs             ... done (   0.000 sec) 528 of 528 pairs
 Determination of significant pairs      ... done (   0.000 sec)
 Creation of shell pair data             ... done (   0.000 sec)
 Storage of shell pair data              ... done (   0.036 sec)
 Shell pair data done in (   0.037 sec)
 Computing two index integrals           ... done
 Cholesky decomposition of the V-matrix  ... done


Timings:
 Total evaluation time                   ...   0.173 sec (  0.003 min)
 One electron matrix time                ...   0.013 sec (  0.000 min) =  7.5%
 Schwartz matrix evaluation time         ...   0.103 sec (  0.002 min) = 59.8%
 Two index repulsion integral time       ...   0.000 sec (  0.000 min) =  0.2%
 Cholesky decomposition of V             ...   0.001 sec (  0.000 min) =  0.4%
 Three index repulsion integral time     ...   0.000 sec (  0.000 min) =  0.0%



           ************************************************************
           *        Program running with 24 parallel MPI-processes    *
           *              working on a common directory               *
           ************************************************************
-------------------------------------------------------------------------------
                                 ORCA SCF
-------------------------------------------------------------------------------

------------
SCF SETTINGS
------------
Hamiltonian:
 Density Functional     Method          .... DFT(GTOs)
 Exchange Functional    Exchange        .... TPSS
 Correlation Functional Correlation     .... TPSS
 LDA part of GGA corr.  LDAOpt          .... PW91-LDA
 Gradients option       PostSCFGGA      .... off
   Density functional embedding theory  .... OFF
   NL short-range parameter             ....  5.000000
 RI-approximation to the Coulomb term is turned on
   Number of auxiliary basis functions  .... 71


General Settings:
 Integral files         IntName         .... 01_H2O
 Hartree-Fock type      HFTyp           .... RHF
 Total Charge           Charge          ....    0
 Multiplicity           Mult            ....    1
 Number of Electrons    NEL             ....   10
 Basis Dimension        Dim             ....   92
 Nuclear Repulsion      ENuc            ....      4.8574378178 Eh

Convergence Acceleration:
 DIIS                   CNVDIIS         .... on
   Start iteration      DIISMaxIt       ....    12
   Startup error        DIISStart       ....  0.200000
   # of expansion vecs  DIISMaxEq       ....     5
   Bias factor          DIISBfac        ....   1.050
   Max. coefficient     DIISMaxC        ....  10.000
 Newton-Raphson         CNVNR           .... off
 SOSCF                  CNVSOSCF        .... on
   Start iteration      SOSCFMaxIt      ....   150
   Startup grad/error   SOSCFStart      ....  0.003300
 Level Shifting         CNVShift        .... on
   Level shift para.    LevelShift      ....    0.2500
   Turn off err/grad.   ShiftErr        ....    0.0010
 Zerner damping         CNVZerner       .... off
 Static damping         CNVDamp         .... on
   Fraction old density DampFac         ....    0.7000
   Max. Damping (<1)    DampMax         ....    0.9800
   Min. Damping (>=0)   DampMin         ....    0.0000
   Turn off err/grad.   DampErr         ....    0.1000
 Fernandez-Rico         CNVRico         .... off

SCF Procedure:
 Maximum # iterations   MaxIter         ....   125
 SCF integral mode      SCFMode         .... Direct
   Integral package                     .... LIBINT
 Reset frequency        DirectResetFreq ....    20
 Integral Threshold     Thresh          ....  2.500e-11 Eh
 Primitive CutOff       TCut            ....  2.500e-12 Eh

Convergence Tolerance:
 Convergence Check Mode ConvCheckMode   .... Total+1el-Energy
 Convergence forced     ConvForced      .... 0
 Energy Change          TolE            ....  1.000e-08 Eh
 1-El. energy change                    ....  1.000e-05 Eh
 Orbital Gradient       TolG            ....  1.000e-05
 Orbital Rotation angle TolX            ....  1.000e-05
 DIIS Error             TolErr          ....  5.000e-07


Diagonalization of the overlap matrix:
Smallest eigenvalue                        ... 2.610e-03
Time for diagonalization                   ...    0.017 sec
Threshold for overlap eigenvalues          ... 1.000e-08
Number of eigenvalues below threshold      ... 0
Time for construction of square roots      ...    0.001 sec
Total time needed                          ...    0.019 sec

-------------------
DFT GRID GENERATION
-------------------

General Integration Accuracy     IntAcc      ...  4.670
Radial Grid Type                 RadialGrid  ... Gauss-Chebyshev
Angular Grid (max. acc.)         AngularGrid ... Lebedev-302
Angular grid pruning method      GridPruning ... 3 (G Style)
Weight generation scheme         WeightScheme... Becke
Basis function cutoff            BFCut       ...    1.0000e-11
Integration weight cutoff        WCut        ...    1.0000e-14
Grids for H and He will be reduced by one unit

# of grid points (after initial pruning)     ...  13000 (   0.0 sec)
# of grid points (after weights+screening)   ...  12960 (   0.0 sec)
nearest neighbour list constructed           ...    0.0 sec
Grid point re-assignment to atoms done       ...    0.0 sec
Grid point division into batches done        ...    0.0 sec
Reduced shell lists constructed in    0.0 sec

Total number of grid points                  ...    12960
Total number of batches                      ...      204
Average number of points per batch           ...       63
Average number of grid points per atom       ...     4320
Average number of shells per batch           ...    14.90 (46.56%)
Average number of basis functions per batch  ...    39.50 (42.93%)
Average number of large shells per batch     ...    10.80 (72.48%)
Average number of large basis fcns per batch ...    27.00 (68.35%)
Maximum spatial batch extension              ...  13.24, 16.88, 11.34 au
Average spatial batch extension              ...   0.48,  0.49,  0.43 au

Time for grid setup =    0.090 sec

------------------------------
INITIAL GUESS: MODEL POTENTIAL
------------------------------
Loading Hartree-Fock densities                     ... done
Calculating cut-offs                               ... done
Setting up the integral package                    ... done
Initializing the effective Hamiltonian             ... done
Starting the Coulomb interaction                   ... done (   0.0 sec)
Reading the grid                                   ... done
Mapping shells                                     ... done
Starting the XC term evaluation                    ... done (   0.0 sec)
  promolecular density results
     # of electrons  =      9.999018782
     EX              =     -8.547441018
     EC              =     -0.286538604
     EX+EC           =     -8.833979621
Transforming the Hamiltonian                       ... done (   0.0 sec)
Diagonalizing the Hamiltonian                      ... done (   0.0 sec)
Back transforming the eigenvectors                 ... done (   0.0 sec)
Now organizing SCF variables                       ... done
                      ------------------
                      INITIAL GUESS DONE (   0.2 sec)
                      ------------------
--------------
SCF ITERATIONS
--------------
ITER       Energy         Delta-E        Max-DP      RMS-DP      [F,P]     Damp
               ***  Starting incremental Fock matrix formation  ***
  0    -75.8836613137   0.000000000000 0.10187272  0.00379151  0.4563095 0.7000
  1    -76.0751698560  -0.191508542356 0.05101863  0.00180488  0.0676693 0.7000
  2    -76.0515930506   0.023576805438 0.03094318  0.00108872  0.2147206 0.7000
                               ***Turning on DIIS***
  3    -76.1040370584  -0.052444007850 0.06926672  0.00277796  0.0653116 0.0000
  4    -76.0854728942   0.018564164188 0.00760342  0.00026435  0.2758704 0.7000
  5    -76.1031777406  -0.017704846399 0.00878938  0.00028985  0.2380470 0.7000
  6    -76.1213282640  -0.018150523330 0.00876053  0.00028372  0.1978293 0.7000
  7    -76.1369006064  -0.015572342418 0.00794766  0.00026149  0.1606043 0.7000
  8    -76.1489284587  -0.012027852336 0.01166746  0.00040771  0.1285670 0.7000
  9    -76.1622965058  -0.013368047099 0.03044043  0.00107947  0.0844562 0.0000
 10    -76.1740912665  -0.011794760725 0.00366271  0.00011521  0.0259909 0.0000
 11    -76.1747804764  -0.000689209812 0.00187595  0.00006401  0.0139246 0.0000
 12    -76.1749969638  -0.000216487450 0.00099886  0.00003703  0.0072229 0.0000
 13    -76.1750630611  -0.000066097282 0.00051469  0.00002008  0.0036293 0.0000
                      *** Initiating the SOSCF procedure ***
                           *** Shutting down DIIS ***
                      *** Re-Reading the Fockian *** 
                      *** Removing any level shift *** 
ITER      Energy       Delta-E        Grad      Rot      Max-DP    RMS-DP
 14    -76.17508133  -0.0000182734  0.000236  0.000236  0.000264  0.000011
               *** Restarting incremental Fock matrix formation ***
 15    -76.17508609  -0.0000047568  0.000646  0.005256  0.002416  0.000081
 16    -76.17500454   0.0000815518  0.004697  0.004442  0.002101  0.000070
 17    -76.17508767  -0.0000831331  0.000031  0.000050  0.000033  0.000001
 18    -76.17508768  -0.0000000038  0.000014  0.000015  0.000010  0.000000
                 **** Energy Check signals convergence ****
              ***Rediagonalizing the Fockian in SOSCF/NRSCF***

               *****************************************************
               *                     SUCCESS                       *
               *           SCF CONVERGED AFTER  19 CYCLES          *
               *****************************************************


----------------
TOTAL SCF ENERGY
----------------

Total Energy       :          -76.17508768 Eh           -2072.82952 eV

Components:
Nuclear Repulsion  :            4.85743782 Eh             132.17760 eV
Electronic Energy  :          -81.03252549 Eh           -2205.00712 eV
One Electron Energy:         -114.58081834 Eh           -3117.90258 eV
Two Electron Energy:           33.54829284 Eh             912.89546 eV

Virial components:
Potential Energy   :         -151.41112516 Eh           -4120.10618 eV
Kinetic Energy     :           75.23603748 Eh            2047.27666 eV
Virial Ratio       :            2.01248139


DFT components:
N(Alpha)           :        5.000017525446 electrons
N(Beta)            :        5.000017525446 electrons
N(Total)           :       10.000035050891 electrons
E(X)               :       -8.634380971233 Eh       
E(C)               :       -0.296938055094 Eh       
E(XC)              :       -8.931319026327 Eh       
DFET-embed. en.    :        0.000000000000 Eh       

---------------
SCF CONVERGENCE
---------------

  Last Energy change         ...    5.6824e-10  Tolerance :   1.0000e-08
  Last MAX-Density change    ...    1.2868e-06  Tolerance :   1.0000e-07
  Last RMS-Density change    ...    3.9549e-08  Tolerance :   5.0000e-09
  Last Orbital Gradient      ...    1.4253e-06  Tolerance :   1.0000e-05
  Last Orbital Rotation      ...    2.0325e-06  Tolerance :   1.0000e-05

             **** THE GBW FILE WAS UPDATED (01_H2O.gbw) ****
             **** DENSITY FILE WAS UPDATED (01_H2O.scfp) ****
             **** ENERGY FILE WAS UPDATED (01_H2O.en.tmp) ****
             **** THE GBW FILE WAS UPDATED (01_H2O.gbw) ****
             **** DENSITY FILE WAS UPDATED (01_H2O.scfp) ****
----------------
ORBITAL ENERGIES
----------------

  NO   OCC          E(Eh)            E(eV) 
   0   2.0000     -18.960311      -515.9363 
   1   2.0000      -0.829883       -22.5823 
   2   2.0000      -0.331040        -9.0081 
   3   2.0000      -0.311274        -8.4702 
   4   2.0000      -0.251465        -6.8427 
   5   0.0000      -0.190269        -5.1775 
   6   0.0000      -0.163562        -4.4507 
   7   0.0000       0.022391         0.6093 
   8   0.0000       0.031188         0.8487 
   9   0.0000       0.078647         2.1401 
  10   0.0000       0.087513         2.3814 
  11   0.0000       0.131755         3.5852 
  12   0.0000       0.132708         3.6112 
  13   0.0000       0.152311         4.1446 
  14   0.0000       0.188107         5.1187 
  15   0.0000       0.194629         5.2961 
  16   0.0000       0.221889         6.0379 
  17   0.0000       0.229588         6.2474 
  18   0.0000       0.240924         6.5559 
  19   0.0000       0.420377        11.4390 
  20   0.0000       0.466115        12.6836 
  21   0.0000       0.550432        14.9780 
  22   0.0000       0.569875        15.5071 
  23   0.0000       0.570361        15.5203 
  24   0.0000       0.598346        16.2818 
  25   0.0000       0.620536        16.8856 
  26   0.0000       0.668402        18.1882 
  27   0.0000       0.714241        19.4355 
  28   0.0000       0.724196        19.7064 
  29   0.0000       0.727115        19.7858 
  30   0.0000       0.742658        20.2087 
  31   0.0000       0.770740        20.9729 
  32   0.0000       0.786140        21.3920 
  33   0.0000       0.822043        22.3689 
  34   0.0000       0.833494        22.6805 
  35   0.0000       0.849592        23.1186 
  36   0.0000       0.864298        23.5188 
  37   0.0000       0.912275        24.8243 
  38   0.0000       0.970431        26.4068 
  39   0.0000       0.974169        26.5085 
  40   0.0000       0.987430        26.8693 
  41   0.0000       1.070670        29.1344 
  42   0.0000       1.083751        29.4904 
  43   0.0000       1.200044        32.6548 
  44   0.0000       1.441313        39.2201 
  45   0.0000       1.691990        46.0414 
  46   0.0000       1.874794        51.0157 
  47   0.0000       1.883123        51.2424 
  48   0.0000       1.905825        51.8601 
  49   0.0000       1.947214        52.9864 
  50   0.0000       1.976429        53.7814 
  51   0.0000       2.005803        54.5807 
  52   0.0000       2.051032        55.8114 
  53   0.0000       2.052258        55.8448 
  54   0.0000       2.106347        57.3166 
  55   0.0000       2.184898        59.4541 
  56   0.0000       2.240825        60.9759 
  57   0.0000       2.267539        61.7029 
  58   0.0000       2.769589        75.3644 
  59   0.0000       2.790847        75.9428 
  60   0.0000       3.575648        97.2983 
  61   0.0000       3.597972        97.9058 
  62   0.0000       3.627237        98.7021 
  63   0.0000       3.631032        98.8054 
  64   0.0000       3.668759        99.8320 
  65   0.0000       3.691242       100.4438 
  66   0.0000       3.728058       101.4456 
  67   0.0000       3.740236       101.7770 
  68   0.0000       3.790111       103.1342 
  69   0.0000       3.825352       104.0931 
  70   0.0000       3.867958       105.2525 
  71   0.0000       3.869632       105.2981 
  72   0.0000       3.908945       106.3678 
  73   0.0000       3.980033       108.3022 
  74   0.0000       4.039426       109.9184 
  75   0.0000       4.059628       110.4681 
  76   0.0000       4.069529       110.7375 
  77   0.0000       4.375369       119.0599 
  78   0.0000       4.467397       121.5640 
  79   0.0000       6.099027       165.9630 
  80   0.0000       6.137241       167.0028 
  81   0.0000       6.212629       169.0542 
  82   0.0000       6.213195       169.0696 
  83   0.0000       6.247696       170.0085 
  84   0.0000       6.359089       173.0396 
  85   0.0000       6.417225       174.6216 
  86   0.0000       6.520522       177.4324 
  87   0.0000       6.531805       177.7395 
  88   0.0000       6.540247       177.9692 
  89   0.0000       6.612040       179.9228 
  90   0.0000       6.802840       185.1147 
  91   0.0000       9.716879       264.4097 

                    ********************************
                    * MULLIKEN POPULATION ANALYSIS *
                    ********************************

-----------------------
MULLIKEN ATOMIC CHARGES
-----------------------
   0 O :   -0.455619
   1 H :    0.227810
   2 H :    0.227810
Sum of atomic charges:    0.0000000

--------------------------------
MULLIKEN REDUCED ORBITAL CHARGES
--------------------------------
  0 O s       :     3.998276  s :     3.998276
      pz      :     1.233413  p :     4.443844
      px      :     1.980387
      py      :     1.230044
      dz2     :     0.000695  d :     0.012737
      dxz     :     0.000342
      dyz     :     0.010060
      dx2y2   :     0.001640
      dxy     :    -0.000000
      f0      :    -0.000057  f :     0.000762
      f+1     :     0.000022
      f-1     :     0.000067
      f+2     :     0.000381
      f-2     :     0.000000
      f+3     :     0.000072
      f-3     :     0.000277
  1 H s       :     0.753742  s :     0.753742
      pz      :     0.002999  p :     0.015930
      px      :     0.008181
      py      :     0.004750
      dz2     :     0.000312  d :     0.002519
      dxz     :     0.000526
      dyz     :     0.000121
      dx2y2   :     0.000679
      dxy     :     0.000882
  2 H s       :     0.753742  s :     0.753742
      pz      :     0.002999  p :     0.015930
      px      :     0.008181
      py      :     0.004749
      dz2     :     0.000312  d :     0.002519
      dxz     :     0.000526
      dyz     :     0.000121
      dx2y2   :     0.000679
      dxy     :     0.000882


                     *******************************
                     * LOEWDIN POPULATION ANALYSIS *
                     *******************************

----------------------
LOEWDIN ATOMIC CHARGES
----------------------
   0 O :   -0.139131
   1 H :    0.069565
   2 H :    0.069565

-------------------------------
LOEWDIN REDUCED ORBITAL CHARGES
-------------------------------
  0 O s       :     3.713790  s :     3.713790
      pz      :     1.242673  p :     4.366109
      px      :     1.888538
      py      :     1.234898
      dz2     :     0.000092  d :     0.053008
      dxz     :     0.000398
      dyz     :     0.036114
      dx2y2   :     0.016404
      dxy     :     0.000000
      f0      :     0.000775  f :     0.006224
      f+1     :     0.000014
      f-1     :     0.001428
      f+2     :     0.003200
      f-2     :     0.000000
      f+3     :     0.000082
      f-3     :     0.000725
  1 H s       :     0.691709  s :     0.691709
      pz      :     0.043874  p :     0.126135
      px      :     0.026592
      py      :     0.055668
      dz2     :     0.013863  d :     0.112591
      dxz     :     0.010942
      dyz     :     0.048630
      dx2y2   :     0.021205
      dxy     :     0.017951
  2 H s       :     0.691709  s :     0.691709
      pz      :     0.043874  p :     0.126135
      px      :     0.026592
      py      :     0.055668
      dz2     :     0.013863  d :     0.112591
      dxz     :     0.010942
      dyz     :     0.048630
      dx2y2   :     0.021205
      dxy     :     0.017951


                      *****************************
                      * MAYER POPULATION ANALYSIS *
                      *****************************

  NA   - Mulliken gross atomic population
  ZA   - Total nuclear charge
  QA   - Mulliken gross atomic charge
  VA   - Mayer's total valence
  BVA  - Mayer's bonded valence
  FA   - Mayer's free valence

  ATOM       NA         ZA         QA         VA         BVA        FA
  0 O      8.4556     8.0000    -0.4556     1.9107     1.9107     0.0000
  1 H      0.7722     1.0000     0.2278     0.9659     0.9659    -0.0000
  2 H      0.7722     1.0000     0.2278     0.9659     0.9659     0.0000

  Mayer bond orders larger than 0.100000
B(  0-O ,  1-H ) :   0.9553 B(  0-O ,  2-H ) :   0.9553 

-------
TIMINGS
-------

Total SCF time: 0 days 0 hours 0 min 2 sec 

Total time                  ....       2.224 sec
Sum of individual times     ....       2.103 sec  ( 94.6%)

Fock matrix formation       ....       1.809 sec  ( 81.3%)
  Split-RI-J                ....       1.511 sec  ( 83.5% of F)
  XC integration            ....       0.246 sec  ( 13.6% of F)
    Basis function eval.    ....       0.025 sec  ( 10.1% of XC)
    Density eval.           ....       0.031 sec  ( 12.8% of XC)
    XC-Functional eval.     ....       0.021 sec  (  8.7% of XC)
    XC-Potential eval.      ....       0.064 sec  ( 26.2% of XC)
Diagonalization             ....       0.017 sec  (  0.8%)
Density matrix formation    ....       0.006 sec  (  0.2%)
Population analysis         ....       0.029 sec  (  1.3%)
Initial guess               ....       0.140 sec  (  6.3%)
Orbital Transformation      ....       0.000 sec  (  0.0%)
Orbital Orthonormalization  ....       0.000 sec  (  0.0%)
DIIS solution               ....       0.010 sec  (  0.5%)
SOSCF solution              ....       0.003 sec  (  0.1%)
Grid generation             ....       0.090 sec  (  4.0%)


-------------------------------------------------------------------------------
                          DFT DISPERSION CORRECTION                            
                                                                               
                              DFTD3 V3.1  Rev 1                                
                          USING Becke-Johnson damping                          
-------------------------------------------------------------------------------
The TPSS functional is recognized
Active option DFTDOPT                   ...         4   

molecular C6(AA) [au] = 85.319616 


            DFT-D V3
 parameters
 s6 scaling factor         :     1.0000 
 a1 scaling factor         :     0.4535 
 s8 scaling factor         :     1.9435 
 a2 scaling factor         :     4.4752 
 ad hoc parameters k1-k3   :    16.0000     1.3333    -4.0000 

 Edisp/kcal,au: -0.468935095581  -0.000747295563 
 E6   /kcal   :  -0.265859756 
 E8   /kcal   :  -0.203075339 
 % E8         :  43.305638913 

-------------------------   ----------------
Dispersion correction           -0.000747296
-------------------------   ----------------


-------------------------   --------------------
FINAL SINGLE POINT ENERGY       -76.175834971477
-------------------------   --------------------



           ************************************************************
           *        Program running with 24 parallel MPI-processes    *
           *              working on a common directory               *
           ************************************************************
------------------------------------------------------------------------------
                         ORCA SCF GRADIENT CALCULATION
------------------------------------------------------------------------------

Gradient of the Kohn-Sham DFT energy:
Kohn-Sham wavefunction type      ... RKS
Hartree-Fock exchange scaling    ...    0.000
Number of operators              ...    1
Number of atoms                  ...    3
Basis set dimensions             ...   92
Integral neglect threshold       ... 2.5e-11
Integral primitive cutoff        ... 2.5e-12

Nuclear repulsion gradient       ... done
One Electron Gradient            ... done
Pre-screening matrix             ... done
RI-J gradient                    ... done
Exchange-correlation gradient    ... done
Dispersion correction            ... done

------------------
CARTESIAN GRADIENT
------------------

   1   O   :   -0.000000001    0.000000003    0.091010764
   2   H   :   -0.000000000   -0.066890397   -0.045564708
   3   H   :    0.000000001    0.066890387   -0.045564702

Difference to translation invariance:
           :   -0.0000000006   -0.0000000074   -0.0001186465

Norm of the cartesian gradient     ...    0.1462323255
RMS gradient                       ...    0.0487441085
MAX gradient                       ...    0.0910107640

-------
TIMINGS
-------

Total SCF gradient time            ...        0.357 sec

One electron gradient       ....       0.003 sec  (  0.8%)
Prescreening matrices       ....       0.013 sec  (  3.6%)
RI-J Coulomb gradient       ....       0.119 sec  ( 33.3%)
XC gradient                 ....       0.022 sec  (  6.2%)
------------------------------------------------------------------------------
                         ORCA GEOMETRY RELAXATION STEP
------------------------------------------------------------------------------

Reading the OPT-File                    .... done
Getting information on internals        .... done
Copying old internal coords+grads       .... done
Making the new internal coordinates     .... (new redundants).... done
Validating the new internal coordinates .... (new redundants).... done
Calculating the B-matrix                .... done
Calculating the G,G- and P matrices     .... done
Transforming gradient to internals      .... done
Projecting the internal gradient        .... done
Number of atoms                         ....   3
Number of internal coordinates          ....   3
Current Energy                          ....   -76.175834971 Eh
Current gradient norm                   ....     0.146232326 Eh/bohr
Maximum allowed component of the step   ....  0.300
Current trust radius                    ....  0.300
Evaluating the initial hessian          ....  (Almloef) done
Projecting the Hessian                  .... done
Forming the augmented Hessian           .... done
Diagonalizing the augmented Hessian     .... done
Last element of RFO vector              ....  0.742050842
Lowest eigenvalues of augmented Hessian:
 -0.104064059  0.022731116  0.120817243
Length of the computed step             ....  0.903366140
Warning: the length of the step is outside the trust region - taking restricted step instead
The input lambda is                     ....    -0.104064
   iter:   1  x=   -0.160634  g=   12.834948 f(x)=     0.726070
   iter:   2  x=   -0.231451  g=    4.251920 f(x)=     0.301108
   iter:   3  x=   -0.302707  g=    1.599593 f(x)=     0.113980
   iter:   4  x=   -0.348078  g=    0.763473 f(x)=     0.034640
   iter:   5  x=   -0.359858  g=    0.516599 f(x)=     0.006086
   iter:   6  x=   -0.360448  g=    0.470441 f(x)=     0.000278
   iter:   7  x=   -0.360449  g=    0.468276 f(x)=     0.000001
   iter:   8  x=   -0.360449  g=    0.468271 f(x)=     0.000000
   iter:   9  x=   -0.360449  g=    0.468271 f(x)=     0.000000
The output lambda is                    ....    -0.360449 (9 iterations)
The final length of the internal step   ....  0.300000000
Converting the step to cartesian space:
 Initial RMS(Int)=    0.1732050808
Transforming coordinates:
 Iter   0:  RMS(Cart)=    0.0980429796 RMS(Int)=    0.1729247920
 Iter   1:  RMS(Cart)=    0.0012889261 RMS(Int)=    0.0014589619
 Iter   2:  RMS(Cart)=    0.0000770346 RMS(Int)=    0.0001039739
 Iter   3:  RMS(Cart)=    0.0000046460 RMS(Int)=    0.0000062836
 Iter   4:  RMS(Cart)=    0.0000002800 RMS(Int)=    0.0000003791
 Iter   5:  RMS(Cart)=    0.0000000169 RMS(Int)=    0.0000000228
done
Storing new coordinates                 .... done

                                .--------------------.
          ----------------------|Geometry convergence|-------------------------
          Item                value                   Tolerance       Converged
          ---------------------------------------------------------------------
          RMS gradient        0.0666885921            0.0001000000      NO
          MAX gradient        0.0807547268            0.0003000000      NO
          RMS step            0.1732050808            0.0020000000      NO
          MAX step            0.2107486502            0.0040000000      NO
          ........................................................
          Max(Bonds)      0.1115      Max(Angles)    1.96
          Max(Dihed)        0.00      Max(Improp)    0.00
          ---------------------------------------------------------------------

The optimization has not yet converged - more geometry cycles are needed


    ---------------------------------------------------------------------------
                         Redundant Internal Coordinates
                            (Angstroem and degrees)

        Definition                    Value    dE/dq     Step     New-Value
    ----------------------------------------------------------------------------
     1. B(H   1,O   0)                1.8120  0.080755 -0.1115    1.7005   
     2. B(H   2,O   0)                1.8120  0.080755 -0.1115    1.7005   
     3. A(H   1,O   0,H   2)          104.36  0.017305   -1.96    102.40   
    ----------------------------------------------------------------------------

         *************************************************************
         *                GEOMETRY OPTIMIZATION CYCLE   2            *
         *************************************************************
---------------------------------
CARTESIAN COORDINATES (ANGSTROEM)
---------------------------------
  O      0.000000   -0.000000    0.093973
  H      0.000000   -1.325267   -0.971560
  H      0.000000    1.325267   -0.971560

----------------------------
CARTESIAN COORDINATES (A.U.)
----------------------------
  NO LB      ZA    FRAG     MASS         X           Y           Z
   0 O     8.0000    0    15.999    0.000000   -0.000000    0.177582
   1 H     1.0000    0     1.008    0.000000   -2.504392   -1.835983
   2 H     1.0000    0     1.008    0.000000    2.504392   -1.835983

--------------------------------
INTERNAL COORDINATES (ANGSTROEM)
--------------------------------
 O      0   0   0     0.000000000000     0.00000000     0.00000000
 H      1   0   0     1.700498145050     0.00000000     0.00000000
 H      1   2   0     1.700498155397   102.40048571     0.00000000

---------------------------
INTERNAL COORDINATES (A.U.)
---------------------------
 O      0   0   0     0.000000000000     0.00000000     0.00000000
 H      1   0   0     3.213475785385     0.00000000     0.00000000
 H      1   2   0     3.213475804938   102.40048571     0.00000000



           ************************************************************
           *        Program running with 24 parallel MPI-processes    *
           *              working on a common directory               *
           ************************************************************
 One Electron integrals                  ... done
 Pre-screening matrix                    ... done


           ************************************************************
           *        Program running with 24 parallel MPI-processes    *
           *              working on a common directory               *
           ************************************************************

Diagonalization of the overlap matrix:
Smallest eigenvalue                        ... 2.052e-03
Time for diagonalization                   ...    0.002 sec
Threshold for overlap eigenvalues          ... 1.000e-08
Number of eigenvalues below threshold      ... 0
Time for construction of square roots      ...    0.001 sec
Total time needed                          ...    0.004 sec

-------------------
DFT GRID GENERATION
-------------------

General Integration Accuracy     IntAcc      ...  4.670
Radial Grid Type                 RadialGrid  ... Gauss-Chebyshev
Angular Grid (max. acc.)         AngularGrid ... Lebedev-302
Angular grid pruning method      GridPruning ... 3 (G Style)
Weight generation scheme         WeightScheme... Becke
Basis function cutoff            BFCut       ...    1.0000e-11
Integration weight cutoff        WCut        ...    1.0000e-14
Grids for H and He will be reduced by one unit

# of grid points (after initial pruning)     ...  13000 (   0.0 sec)
# of grid points (after weights+screening)   ...  12946 (   0.0 sec)
nearest neighbour list constructed           ...    0.0 sec
Grid point re-assignment to atoms done       ...    0.0 sec
Grid point division into batches done        ...    0.1 sec
Reduced shell lists constructed in    0.1 sec

Total number of grid points                  ...    12946
Total number of batches                      ...      203
Average number of points per batch           ...       63
Average number of grid points per atom       ...     4315
Average number of shells per batch           ...    14.60 (45.62%)
Average number of basis functions per batch  ...    37.80 (41.09%)
Average number of large shells per batch     ...    10.60 (72.60%)
Average number of large basis fcns per batch ...    26.60 (70.37%)
Maximum spatial batch extension              ...  13.24, 16.88, 11.34 au
Average spatial batch extension              ...   0.49,  0.49,  0.43 au

Time for grid setup =    0.091 sec

--------------
SCF ITERATIONS
--------------
ITER       Energy         Delta-E        Max-DP      RMS-DP      [F,P]     Damp
               ***  Starting incremental Fock matrix formation  ***
  0    -76.2108059605   0.000000000000 0.00381410  0.00012570  0.0183065 0.7000
                      *** Initiating the SOSCF procedure ***
                      *** Re-Reading the Fockian *** 
                      *** Removing any level shift *** 
ITER      Energy       Delta-E        Grad      Rot      Max-DP    RMS-DP
  1    -76.21114047  -0.0003345145  0.003110  0.003110  0.006845  0.000278
               *** Restarting incremental Fock matrix formation ***
  2    -76.21126537  -0.0001248962  0.009896  0.059936  0.029775  0.001043
  3    -76.19817692   0.0130884558  0.059556  0.054273  0.026151  0.000898
  4    -76.21163700  -0.0134600854  0.000473  0.000770  0.000454  0.000019
  5    -76.21163826  -0.0000012612  0.000286  0.000258  0.000149  0.000006
  6    -76.21163873  -0.0000004716  0.000012  0.000036  0.000023  0.000001
  7    -76.21163874  -0.0000000026  0.000005  0.000009  0.000005  0.000000
                 **** Energy Check signals convergence ****
              ***Rediagonalizing the Fockian in SOSCF/NRSCF***

               *****************************************************
               *                     SUCCESS                       *
               *           SCF CONVERGED AFTER   8 CYCLES          *
               *****************************************************

Total Energy       :          -76.21163874 Eh           -2073.82412 eV
  Last Energy change         ...    8.9500e-11  Tolerance :   1.0000e-08
  Last MAX-Density change    ...    4.0328e-07  Tolerance :   1.0000e-07
             **** THE GBW FILE WAS UPDATED (01_H2O.gbw) ****
             **** DENSITY FILE WAS UPDATED (01_H2O.scfp) ****
             **** ENERGY FILE WAS UPDATED (01_H2O.en.tmp) ****
             **** THE GBW FILE WAS UPDATED (01_H2O.gbw) ****
             **** DENSITY FILE WAS UPDATED (01_H2O.scfp) ****
Total SCF time: 0 days 0 hours 0 min 1 sec 


-------------------------------------------------------------------------------
                          DFT DISPERSION CORRECTION                            
                                                                               
                              DFTD3 V3.1  Rev 1                                
                          USING Becke-Johnson damping                          
-------------------------------------------------------------------------------
-------------------------   ----------------
Dispersion correction           -0.000774549
-------------------------   ----------------


-------------------------   --------------------
FINAL SINGLE POINT ENERGY       -76.212413285457
-------------------------   --------------------



           ************************************************************
           *        Program running with 24 parallel MPI-processes    *
           *              working on a common directory               *
           ************************************************************
------------------------------------------------------------------------------
                         ORCA SCF GRADIENT CALCULATION
------------------------------------------------------------------------------

Gradient of the Kohn-Sham DFT energy:
Kohn-Sham wavefunction type      ... RKS
Hartree-Fock exchange scaling    ...    0.000
Number of operators              ...    1
Number of atoms                  ...    3
Basis set dimensions             ...   92
Integral neglect threshold       ... 2.5e-11
Integral primitive cutoff        ... 2.5e-12

Nuclear repulsion gradient       ... done
One Electron Gradient            ... done
Pre-screening matrix             ... done
RI-J gradient                    ... done
Exchange-correlation gradient    ... done
Dispersion correction            ... done

------------------
CARTESIAN GRADIENT
------------------

   1   O   :    0.000000004   -0.000000004    0.104349331
   2   H   :   -0.000000001   -0.073450392   -0.052276307
   3   H   :   -0.000000002    0.073450395   -0.052276306

Difference to translation invariance:
           :    0.0000000011   -0.0000000010   -0.0002032822

Norm of the cartesian gradient     ...    0.1647553584
RMS gradient                       ...    0.0549184528
MAX gradient                       ...    0.1043493311

-------
TIMINGS
-------

Total SCF gradient time            ...        0.352 sec

One electron gradient       ....       0.022 sec  (  6.2%)
Prescreening matrices       ....       0.011 sec  (  3.2%)
RI-J Coulomb gradient       ....       0.088 sec  ( 25.1%)
XC gradient                 ....       0.023 sec  (  6.4%)
------------------------------------------------------------------------------
                         ORCA GEOMETRY RELAXATION STEP
------------------------------------------------------------------------------

Reading the OPT-File                    .... done
Getting information on internals        .... done
Copying old internal coords+grads       .... done
Making the new internal coordinates     .... (new redundants).... done
Validating the new internal coordinates .... (new redundants).... done
Calculating the B-matrix                .... done
Calculating the G,G- and P matrices     .... done
Transforming gradient to internals      .... done
Projecting the internal gradient        .... done
Number of atoms                         ....   3
Number of internal coordinates          ....   3
Current Energy                          ....   -76.212413285 Eh
Current gradient norm                   ....     0.164755358 Eh/bohr
Maximum allowed component of the step   ....  0.300
Current trust radius                    ....  0.300
Updating the Hessian (BFGS)             .... done
Forming the augmented Hessian           .... done
Diagonalizing the augmented Hessian     .... done
Last element of RFO vector              ....  0.645839162
Lowest eigenvalues of augmented Hessian:
 -0.151675267  0.022731116  0.107539116
Length of the computed step             ....  1.182141840
Warning: the length of the step is outside the trust region - taking restricted step instead
The input lambda is                     ....    -0.151675
   iter:   1  x=   -0.202430  g=   25.760528 f(x)=     1.307459
   iter:   2  x=   -0.271017  g=    8.145497 f(x)=     0.558681
   iter:   3  x=   -0.352609  g=    2.781626 f(x)=     0.226958
   iter:   4  x=   -0.426329  g=    1.110559 f(x)=     0.081871
   iter:   5  x=   -0.464123  g=    0.585020 f(x)=     0.022110
   iter:   6  x=   -0.470669  g=    0.441193 f(x)=     0.002888
   iter:   7  x=   -0.470826  g=    0.421239 f(x)=     0.000066
   iter:   8  x=   -0.470826  g=    0.420776 f(x)=     0.000000
   iter:   9  x=   -0.470826  g=    0.420776 f(x)=     0.000000
   iter:  10  x=   -0.470826  g=    0.420776 f(x)=    -0.000000
The output lambda is                    ....    -0.470826 (10 iterations)
The final length of the internal step   ....  0.300000000
Converting the step to cartesian space:
 Initial RMS(Int)=    0.1732050808
Transforming coordinates:
 Iter   0:  RMS(Cart)=    0.0972552256 RMS(Int)=    0.1729396538
 Iter   1:  RMS(Cart)=    0.0013637962 RMS(Int)=    0.0016196231
 Iter   2:  RMS(Cart)=    0.0000873163 RMS(Int)=    0.0001214506
 Iter   3:  RMS(Cart)=    0.0000056555 RMS(Int)=    0.0000078695
 Iter   4:  RMS(Cart)=    0.0000003661 RMS(Int)=    0.0000005099
 Iter   5:  RMS(Cart)=    0.0000000237 RMS(Int)=    0.0000000330
done
Storing new coordinates                 .... done

                                .--------------------.
          ----------------------|Geometry convergence|-------------------------
          Item                value                   Tolerance       Converged
          ---------------------------------------------------------------------
          Energy change      -0.0365783140            0.0000050000      NO
          RMS gradient        0.0741135305            0.0001000000      NO
          MAX gradient        0.0899567788            0.0003000000      NO
          RMS step            0.1732050808            0.0020000000      NO
          MAX step            0.2106279432            0.0040000000      NO
          ........................................................
          Max(Bonds)      0.1115      Max(Angles)    2.04
          Max(Dihed)        0.00      Max(Improp)    0.00
          ---------------------------------------------------------------------

The optimization has not yet converged - more geometry cycles are needed


    ---------------------------------------------------------------------------
                         Redundant Internal Coordinates
                            (Angstroem and degrees)

        Definition                    Value    dE/dq     Step     New-Value
    ----------------------------------------------------------------------------
     1. B(H   1,O   0)                1.7005  0.089957 -0.1115    1.5890   
     2. B(H   2,O   0)                1.7005  0.089957 -0.1115    1.5890   
     3. A(H   1,O   0,H   2)          102.40  0.017147   -2.04    100.36   
    ----------------------------------------------------------------------------

         *************************************************************
         *                GEOMETRY OPTIMIZATION CYCLE   3            *
         *************************************************************
---------------------------------
CARTESIAN COORDINATES (ANGSTROEM)
---------------------------------
  O      0.000000    0.000000    0.062027
  H      0.000000   -1.220452   -0.955588
  H      0.000000    1.220452   -0.955588

----------------------------
CARTESIAN COORDINATES (A.U.)
----------------------------
  NO LB      ZA    FRAG     MASS         X           Y           Z
   0 O     8.0000    0    15.999    0.000000    0.000000    0.117214
   1 H     1.0000    0     1.008    0.000000   -2.306321   -1.805799
   2 H     1.0000    0     1.008    0.000000    2.306321   -1.805799

--------------------------------
INTERNAL COORDINATES (ANGSTROEM)
--------------------------------
 O      0   0   0     0.000000000000     0.00000000     0.00000000
 H      1   0   0     1.589038652425     0.00000000     0.00000000
 H      1   2   0     1.589038647747   100.35722562     0.00000000

---------------------------
INTERNAL COORDINATES (A.U.)
---------------------------
 O      0   0   0     0.000000000000     0.00000000     0.00000000
 H      1   0   0     3.002847869298     0.00000000     0.00000000
 H      1   2   0     3.002847860458   100.35722562     0.00000000



           ************************************************************
           *        Program running with 24 parallel MPI-processes    *
           *              working on a common directory               *
           ************************************************************
 One Electron integrals                  ... done
 Pre-screening matrix                    ... done


           ************************************************************
           *        Program running with 24 parallel MPI-processes    *
           *              working on a common directory               *
           ************************************************************

Diagonalization of the overlap matrix:
Smallest eigenvalue                        ... 1.582e-03
Time for diagonalization                   ...    0.003 sec
Threshold for overlap eigenvalues          ... 1.000e-08
Number of eigenvalues below threshold      ... 0
Time for construction of square roots      ...    0.001 sec
Total time needed                          ...    0.004 sec

-------------------
DFT GRID GENERATION
-------------------

General Integration Accuracy     IntAcc      ...  4.670
Radial Grid Type                 RadialGrid  ... Gauss-Chebyshev
Angular Grid (max. acc.)         AngularGrid ... Lebedev-302
Angular grid pruning method      GridPruning ... 3 (G Style)
Weight generation scheme         WeightScheme... Becke
Basis function cutoff            BFCut       ...    1.0000e-11
Integration weight cutoff        WCut        ...    1.0000e-14
Grids for H and He will be reduced by one unit

# of grid points (after initial pruning)     ...  13000 (   0.0 sec)
# of grid points (after weights+screening)   ...  12940 (   0.0 sec)
nearest neighbour list constructed           ...    0.0 sec
Grid point re-assignment to atoms done       ...    0.0 sec
Grid point division into batches done        ...    0.1 sec
Reduced shell lists constructed in    0.1 sec

Total number of grid points                  ...    12940
Total number of batches                      ...      204
Average number of points per batch           ...       63
Average number of grid points per atom       ...     4313
Average number of shells per batch           ...    14.90 (46.56%)
Average number of basis functions per batch  ...    38.30 (41.63%)
Average number of large shells per batch     ...    10.60 (71.14%)
Average number of large basis fcns per batch ...    26.80 (69.97%)
Maximum spatial batch extension              ...  13.13, 16.88, 13.88 au
Average spatial batch extension              ...   0.50,  0.54,  0.54 au

Time for grid setup =    0.101 sec

--------------
SCF ITERATIONS
--------------
ITER       Energy         Delta-E        Max-DP      RMS-DP      [F,P]     Damp
               ***  Starting incremental Fock matrix formation  ***
  0    -76.2508905819   0.000000000000 0.00374854  0.00013269  0.0203942 0.7000
                      *** Initiating the SOSCF procedure ***
                      *** Re-Reading the Fockian *** 
                      *** Removing any level shift *** 
ITER      Energy       Delta-E        Grad      Rot      Max-DP    RMS-DP
  1    -76.25129607  -0.0004054874  0.002639  0.002639  0.007459  0.000323
               *** Restarting incremental Fock matrix formation ***
  2    -76.25163440  -0.0003383344  0.009360  0.045049  0.023704  0.000859
  3    -76.24348571   0.0081486938  0.046525  0.040687  0.020444  0.000717
  4    -76.25198246  -0.0084967506  0.000501  0.000765  0.000447  0.000019
  5    -76.25198366  -0.0000012041  0.000318  0.000277  0.000161  0.000006
  6    -76.25198426  -0.0000005934  0.000012  0.000025  0.000018  0.000001
  7    -76.25198426  -0.0000000014  0.000004  0.000006  0.000004  0.000000
                 **** Energy Check signals convergence ****
              ***Rediagonalizing the Fockian in SOSCF/NRSCF***

               *****************************************************
               *                     SUCCESS                       *
               *           SCF CONVERGED AFTER   8 CYCLES          *
               *****************************************************

Total Energy       :          -76.25198426 Eh           -2074.92198 eV
  Last Energy change         ...   -2.5766e-10  Tolerance :   1.0000e-08
  Last MAX-Density change    ...    1.9828e-07  Tolerance :   1.0000e-07
             **** THE GBW FILE WAS UPDATED (01_H2O.gbw) ****
             **** DENSITY FILE WAS UPDATED (01_H2O.scfp) ****
             **** ENERGY FILE WAS UPDATED (01_H2O.en.tmp) ****
             **** THE GBW FILE WAS UPDATED (01_H2O.gbw) ****
             **** DENSITY FILE WAS UPDATED (01_H2O.scfp) ****
Total SCF time: 0 days 0 hours 0 min 1 sec 


-------------------------------------------------------------------------------
                          DFT DISPERSION CORRECTION                            
                                                                               
                              DFTD3 V3.1  Rev 1                                
                          USING Becke-Johnson damping                          
-------------------------------------------------------------------------------
-------------------------   ----------------
Dispersion correction           -0.000793639
-------------------------   ----------------


-------------------------   --------------------
FINAL SINGLE POINT ENERGY       -76.252777898291
-------------------------   --------------------



           ************************************************************
           *        Program running with 24 parallel MPI-processes    *
           *              working on a common directory               *
           ************************************************************
------------------------------------------------------------------------------
                         ORCA SCF GRADIENT CALCULATION
------------------------------------------------------------------------------

Gradient of the Kohn-Sham DFT energy:
Kohn-Sham wavefunction type      ... RKS
Hartree-Fock exchange scaling    ...    0.000
Number of operators              ...    1
Number of atoms                  ...    3
Basis set dimensions             ...   92
Integral neglect threshold       ... 2.5e-11
Integral primitive cutoff        ... 2.5e-12

Nuclear repulsion gradient       ... done
One Electron Gradient            ... done
Pre-screening matrix             ... done
RI-J gradient                    ... done
Exchange-correlation gradient    ... done
Dispersion correction            ... done

------------------
CARTESIAN GRADIENT
------------------

   1   O   :   -0.000000000    0.000000001    0.118343997
   2   H   :   -0.000000000   -0.079223679   -0.059305440
   3   H   :    0.000000001    0.079223680   -0.059305440

Difference to translation invariance:
           :    0.0000000007    0.0000000028   -0.0002668822

Norm of the cartesian gradient     ...    0.1832821730
RMS gradient                       ...    0.0610940577
MAX gradient                       ...    0.1183439974

-------
TIMINGS
-------

Total SCF gradient time            ...        0.346 sec

One electron gradient       ....       0.006 sec  (  1.7%)
Prescreening matrices       ....       0.013 sec  (  3.8%)
RI-J Coulomb gradient       ....       0.080 sec  ( 23.1%)
XC gradient                 ....       0.024 sec  (  6.9%)
------------------------------------------------------------------------------
                         ORCA GEOMETRY RELAXATION STEP
------------------------------------------------------------------------------

Reading the OPT-File                    .... done
Getting information on internals        .... done
Copying old internal coords+grads       .... done
Making the new internal coordinates     .... (new redundants).... done
Validating the new internal coordinates .... (new redundants).... done
Calculating the B-matrix                .... done
Calculating the G,G- and P matrices     .... done
Transforming gradient to internals      .... done
Projecting the internal gradient        .... done
Number of atoms                         ....   3
Number of internal coordinates          ....   3
Current Energy                          ....   -76.252777898 Eh
Current gradient norm                   ....     0.183282173 Eh/bohr
Maximum allowed component of the step   ....  0.300
Current trust radius                    ....  0.300
Updating the Hessian (BFGS)             .... done
Forming the augmented Hessian           .... done
Diagonalizing the augmented Hessian     .... done
Last element of RFO vector              ....  0.653877498
Lowest eigenvalues of augmented Hessian:
 -0.162588393  0.022731116  0.119601266
Length of the computed step             ....  1.157098138
Warning: the length of the step is outside the trust region - taking restricted step instead
The input lambda is                     ....    -0.162588
   iter:   1  x=   -0.219207  g=   22.057716 f(x)=     1.248876
   iter:   2  x=   -0.295360  g=    6.994847 f(x)=     0.532679
   iter:   3  x=   -0.385023  g=    2.403286 f(x)=     0.215486
   iter:   4  x=   -0.464287  g=    0.970910 f(x)=     0.076958
   iter:   5  x=   -0.503189  g=    0.521129 f(x)=     0.020273
   iter:   6  x=   -0.509405  g=    0.400278 f(x)=     0.002488
   iter:   7  x=   -0.509534  g=    0.384548 f(x)=     0.000049
   iter:   8  x=   -0.509534  g=    0.384232 f(x)=     0.000000
   iter:   9  x=   -0.509534  g=    0.384232 f(x)=     0.000000
The output lambda is                    ....    -0.509534 (9 iterations)
The final length of the internal step   ....  0.300000000
Converting the step to cartesian space:
 Initial RMS(Int)=    0.1732050808
Transforming coordinates:
 Iter   0:  RMS(Cart)=    0.0940300487 RMS(Int)=    0.1730477182
 Iter   1:  RMS(Cart)=    0.0011769202 RMS(Int)=    0.0014356372
 Iter   2:  RMS(Cart)=    0.0000831206 RMS(Int)=    0.0001123354
 Iter   3:  RMS(Cart)=    0.0000060047 RMS(Int)=    0.0000080847
 Iter   4:  RMS(Cart)=    0.0000004334 RMS(Int)=    0.0000005838
 Iter   5:  RMS(Cart)=    0.0000000313 RMS(Int)=    0.0000000421
done
Storing new coordinates                 .... done

                                .--------------------.
          ----------------------|Geometry convergence|-------------------------
          Item                value                   Tolerance       Converged
          ---------------------------------------------------------------------
          Energy change      -0.0403646128            0.0000050000      NO
          RMS gradient        0.0811575520            0.0001000000      NO
          MAX gradient        0.0987693363            0.0003000000      NO
          RMS step            0.1732050808            0.0020000000      NO
          MAX step            0.2110815475            0.0040000000      NO
          ........................................................
          Max(Bonds)      0.1117      Max(Angles)    1.71
          Max(Dihed)        0.00      Max(Improp)    0.00
          ---------------------------------------------------------------------

The optimization has not yet converged - more geometry cycles are needed


    ---------------------------------------------------------------------------
                         Redundant Internal Coordinates
                            (Angstroem and degrees)

        Definition                    Value    dE/dq     Step     New-Value
    ----------------------------------------------------------------------------
     1. B(H   1,O   0)                1.5890  0.098769 -0.1117    1.4773   
     2. B(H   2,O   0)                1.5890  0.098769 -0.1117    1.4773   
     3. A(H   1,O   0,H   2)          100.36  0.015776   -1.71     98.65   
    ----------------------------------------------------------------------------

         *************************************************************
         *                GEOMETRY OPTIMIZATION CYCLE   4            *
         *************************************************************
---------------------------------
CARTESIAN COORDINATES (ANGSTROEM)
---------------------------------
  O      0.000000    0.000000    0.025547
  H      0.000000   -1.120431   -0.937347
  H      0.000000    1.120431   -0.937347

----------------------------
CARTESIAN COORDINATES (A.U.)
----------------------------
  NO LB      ZA    FRAG     MASS         X           Y           Z
   0 O     8.0000    0    15.999    0.000000    0.000000    0.048276
   1 H     1.0000    0     1.008    0.000000   -2.117308   -1.771330
   2 H     1.0000    0     1.008    0.000000    2.117308   -1.771330

--------------------------------
INTERNAL COORDINATES (ANGSTROEM)
--------------------------------
 O      0   0   0     0.000000000000     0.00000000     0.00000000
 H      1   0   0     1.477339107674     0.00000000     0.00000000
 H      1   2   0     1.477339106366    98.64873210     0.00000000

---------------------------
INTERNAL COORDINATES (A.U.)
---------------------------
 O      0   0   0     0.000000000000     0.00000000     0.00000000
 H      1   0   0     2.791766320436     0.00000000     0.00000000
 H      1   2   0     2.791766317964    98.64873210     0.00000000



           ************************************************************
           *        Program running with 24 parallel MPI-processes    *
           *              working on a common directory               *
           ************************************************************
 One Electron integrals                  ... done
 Pre-screening matrix                    ... done


           ************************************************************
           *        Program running with 24 parallel MPI-processes    *
           *              working on a common directory               *
           ************************************************************

Diagonalization of the overlap matrix:
Smallest eigenvalue                        ... 1.198e-03
Time for diagonalization                   ...    0.002 sec
Threshold for overlap eigenvalues          ... 1.000e-08
Number of eigenvalues below threshold      ... 0
Time for construction of square roots      ...    0.001 sec
Total time needed                          ...    0.003 sec

-------------------
DFT GRID GENERATION
-------------------

General Integration Accuracy     IntAcc      ...  4.670
Radial Grid Type                 RadialGrid  ... Gauss-Chebyshev
Angular Grid (max. acc.)         AngularGrid ... Lebedev-302
Angular grid pruning method      GridPruning ... 3 (G Style)
Weight generation scheme         WeightScheme... Becke
Basis function cutoff            BFCut       ...    1.0000e-11
Integration weight cutoff        WCut        ...    1.0000e-14
Grids for H and He will be reduced by one unit

# of grid points (after initial pruning)     ...  13000 (   0.0 sec)
# of grid points (after weights+screening)   ...  12930 (   0.0 sec)
nearest neighbour list constructed           ...    0.0 sec
Grid point re-assignment to atoms done       ...    0.0 sec
Grid point division into batches done        ...    0.0 sec
Reduced shell lists constructed in    0.1 sec

Total number of grid points                  ...    12930
Total number of batches                      ...      204
Average number of points per batch           ...       63
Average number of grid points per atom       ...     4310
Average number of shells per batch           ...    15.10 (47.19%)
Average number of basis functions per batch  ...    38.90 (42.28%)
Average number of large shells per batch     ...    10.80 (71.52%)
Average number of large basis fcns per batch ...    27.40 (70.44%)
Maximum spatial batch extension              ...  13.13, 16.88, 13.77 au
Average spatial batch extension              ...   0.50,  0.57,  0.54 au

Time for grid setup =    0.092 sec

--------------
SCF ITERATIONS
--------------
ITER       Energy         Delta-E        Max-DP      RMS-DP      [F,P]     Damp
               ***  Starting incremental Fock matrix formation  ***
  0    -76.2942927070   0.000000000000 0.00365894  0.00014759  0.0225910 0.7000
                      *** Initiating the SOSCF procedure ***
                      *** Re-Reading the Fockian *** 
                      *** Removing any level shift *** 
ITER      Energy       Delta-E        Grad      Rot      Max-DP    RMS-DP
  1    -76.29480034  -0.0005076334  0.003235  0.003235  0.008452  0.000380
               *** Restarting incremental Fock matrix formation ***
  2    -76.29543584  -0.0006354973  0.008641  0.032375  0.018563  0.000708
  3    -76.29050645   0.0049293861  0.035604  0.029613  0.015740  0.000570
  4    -76.29575603  -0.0052495825  0.000536  0.000788  0.000482  0.000019
  5    -76.29575737  -0.0000013373  0.000351  0.000296  0.000175  0.000007
  6    -76.29575816  -0.0000007855  0.000007  0.000017  0.000013  0.000000
                 **** Energy Check signals convergence ****
              ***Rediagonalizing the Fockian in SOSCF/NRSCF***

               *****************************************************
               *                     SUCCESS                       *
               *           SCF CONVERGED AFTER   7 CYCLES          *
               *****************************************************

Total Energy       :          -76.29575816 Eh           -2076.11313 eV
  Last Energy change         ...   -7.9699e-10  Tolerance :   1.0000e-08
  Last MAX-Density change    ...    2.5611e-06  Tolerance :   1.0000e-07
             **** THE GBW FILE WAS UPDATED (01_H2O.gbw) ****
             **** DENSITY FILE WAS UPDATED (01_H2O.scfp) ****
             **** ENERGY FILE WAS UPDATED (01_H2O.en.tmp) ****
             **** THE GBW FILE WAS UPDATED (01_H2O.gbw) ****
             **** DENSITY FILE WAS UPDATED (01_H2O.scfp) ****
Total SCF time: 0 days 0 hours 0 min 1 sec 


-------------------------------------------------------------------------------
                          DFT DISPERSION CORRECTION                            
                                                                               
                              DFTD3 V3.1  Rev 1                                
                          USING Becke-Johnson damping                          
-------------------------------------------------------------------------------
-------------------------   ----------------
Dispersion correction           -0.000798255
-------------------------   ----------------


-------------------------   --------------------
FINAL SINGLE POINT ENERGY       -76.296556412688
-------------------------   --------------------



           ************************************************************
           *        Program running with 24 parallel MPI-processes    *
           *              working on a common directory               *
           ************************************************************
------------------------------------------------------------------------------
                         ORCA SCF GRADIENT CALCULATION
------------------------------------------------------------------------------

Gradient of the Kohn-Sham DFT energy:
Kohn-Sham wavefunction type      ... RKS
Hartree-Fock exchange scaling    ...    0.000
Number of operators              ...    1
Number of atoms                  ...    3
Basis set dimensions             ...   92
Integral neglect threshold       ... 2.5e-11
Integral primitive cutoff        ... 2.5e-12

Nuclear repulsion gradient       ... done
One Electron Gradient            ... done
Pre-screening matrix             ... done
RI-J gradient                    ... done
Exchange-correlation gradient    ... done
Dispersion correction            ... done

------------------
CARTESIAN GRADIENT
------------------

   1   O   :   -0.000000003    0.000000001    0.131152278
   2   H   :   -0.000000000   -0.083609199   -0.065700005
   3   H   :    0.000000002    0.083609198   -0.065700005

Difference to translation invariance:
           :   -0.0000000010    0.0000000003   -0.0002477319

Norm of the cartesian gradient     ...    0.1995367074
RMS gradient                       ...    0.0665122358
MAX gradient                       ...    0.1311522784

-------
TIMINGS
-------

Total SCF gradient time            ...        0.357 sec

One electron gradient       ....       0.021 sec  (  6.0%)
Prescreening matrices       ....       0.012 sec  (  3.5%)
RI-J Coulomb gradient       ....       0.088 sec  ( 24.7%)
XC gradient                 ....       0.026 sec  (  7.1%)
------------------------------------------------------------------------------
                         ORCA GEOMETRY RELAXATION STEP
------------------------------------------------------------------------------

Reading the OPT-File                    .... done
Getting information on internals        .... done
Copying old internal coords+grads       .... done
Making the new internal coordinates     .... (new redundants).... done
Validating the new internal coordinates .... (new redundants).... done
Calculating the B-matrix                .... done
Calculating the G,G- and P matrices     .... done
Transforming gradient to internals      .... done
Projecting the internal gradient        .... done
Number of atoms                         ....   3
Number of internal coordinates          ....   3
Current Energy                          ....   -76.296556413 Eh
Current gradient norm                   ....     0.199536707 Eh/bohr
Maximum allowed component of the step   ....  0.300
Current trust radius                    ....  0.300
Updating the Hessian (BFGS)             .... done
Forming the augmented Hessian           .... done
Diagonalizing the augmented Hessian     .... done
Last element of RFO vector              ....  0.665492193
Lowest eigenvalues of augmented Hessian:
 -0.168970286  0.022731116  0.126059029
Length of the computed step             ....  1.121583120
Warning: the length of the step is outside the trust region - taking restricted step instead
The input lambda is                     ....    -0.168970
   iter:   1  x=   -0.231295  g=   18.739724 f(x)=     1.167949
   iter:   2  x=   -0.314527  g=    5.968725 f(x)=     0.496792
   iter:   3  x=   -0.410999  g=    2.069808 f(x)=     0.199678
   iter:   4  x=   -0.493488  g=    0.851248 f(x)=     0.070219
   iter:   5  x=   -0.531380  g=    0.469757 f(x)=     0.017800
   iter:   6  x=   -0.536740  g=    0.370259 f(x)=     0.001985
   iter:   7  x=   -0.536829  g=    0.358529 f(x)=     0.000032
   iter:   8  x=   -0.536829  g=    0.358339 f(x)=     0.000000
   iter:   9  x=   -0.536829  g=    0.358339 f(x)=     0.000000
The output lambda is                    ....    -0.536829 (9 iterations)
The final length of the internal step   ....  0.300000000
Converting the step to cartesian space:
 Initial RMS(Int)=    0.1732050808
Transforming coordinates:
 Iter   0:  RMS(Cart)=    0.0905475740 RMS(Int)=    0.1731371529
 Iter   1:  RMS(Cart)=    0.0008889214 RMS(Int)=    0.0011267332
 Iter   2:  RMS(Cart)=    0.0000698317 RMS(Int)=    0.0000935298
 Iter   3:  RMS(Cart)=    0.0000056181 RMS(Int)=    0.0000074961
 Iter   4:  RMS(Cart)=    0.0000004513 RMS(Int)=    0.0000006024
 Iter   5:  RMS(Cart)=    0.0000000363 RMS(Int)=    0.0000000484
done
Storing new coordinates                 .... done

                                .--------------------.
          ----------------------|Geometry convergence|-------------------------
[...]
  60   0.0000       3.615874        98.3929 
  61   0.0000       3.719763       101.2199 
  62   0.0000       3.868007       105.2538 
  63   0.0000       3.945281       107.3565 
  64   0.0000       3.993814       108.6772 
  65   0.0000       4.079539       111.0099 
  66   0.0000       4.082030       111.0777 
  67   0.0000       4.095673       111.4489 
  68   0.0000       4.169812       113.4664 
  69   0.0000       4.289914       116.7345 
  70   0.0000       4.432861       120.6243 
  71   0.0000       4.809358       130.8693 
  72   0.0000       4.815310       131.0312 
  73   0.0000       4.891715       133.1103 
  74   0.0000       4.899050       133.3099 
  75   0.0000       5.109549       139.0379 
  76   0.0000       5.303069       144.3038 
  77   0.0000       5.733716       156.0224 
  78   0.0000       6.075848       165.3322 
  79   0.0000       6.263395       170.4356 
  80   0.0000       6.443521       175.3371 
  81   0.0000       6.650921       180.9808 
  82   0.0000       6.726211       183.0295 
  83   0.0000       6.775164       184.3616 
  84   0.0000       6.788686       184.7295 
  85   0.0000       6.836905       186.0416 
  86   0.0000       6.869759       186.9356 
  87   0.0000       7.021267       191.0584 
  88   0.0000       7.397330       201.2916 
  89   0.0000       7.450427       202.7364 
  90   0.0000       8.254023       224.6034 
  91   0.0000      14.690592       399.7513 

                    ********************************
                    * MULLIKEN POPULATION ANALYSIS *
                    ********************************

-----------------------
MULLIKEN ATOMIC CHARGES
-----------------------
   0 O :   -0.342064
   1 H :    0.171032
   2 H :    0.171031
Sum of atomic charges:   -0.0000000

--------------------------------
MULLIKEN REDUCED ORBITAL CHARGES
--------------------------------
  0 O s       :     3.938900  s :     3.938900
      pz      :     1.399296  p :     4.396064
      px      :     1.849604
      py      :     1.147164
      dz2     :     0.002196  d :     0.006745
      dxz     :     0.002027
      dyz     :     0.003724
      dx2y2   :    -0.001202
      dxy     :     0.000000
      f0      :    -0.000109  f :     0.000355
      f+1     :     0.000017
      f-1     :     0.000181
      f+2     :    -0.000000
      f-2     :    -0.000000
      f+3     :     0.000050
      f-3     :     0.000218
  1 H s       :     0.703491  s :     0.703491
      pz      :     0.029248  p :     0.107215
      px      :     0.062379
      py      :     0.015588
      dz2     :     0.003630  d :     0.018261
      dxz     :     0.003805
      dyz     :     0.001425
      dx2y2   :     0.001434
      dxy     :     0.007966
  2 H s       :     0.703492  s :     0.703492
      pz      :     0.029249  p :     0.107216
      px      :     0.062380
      py      :     0.015588
      dz2     :     0.003630  d :     0.018261
      dxz     :     0.003805
      dyz     :     0.001425
      dx2y2   :     0.001434
      dxy     :     0.007966


                     *******************************
                     * LOEWDIN POPULATION ANALYSIS *
                     *******************************

----------------------
LOEWDIN ATOMIC CHARGES
----------------------
   0 O :    1.019093
   1 H :   -0.509546
   2 H :   -0.509548

-------------------------------
LOEWDIN REDUCED ORBITAL CHARGES
-------------------------------
  0 O s       :     3.022274  s :     3.022274
      pz      :     1.304728  p :     3.873167
      px      :     1.424868
      py      :     1.143570
      dz2     :     0.000448  d :     0.069253
      dxz     :     0.000508
      dyz     :     0.050325
      dx2y2   :     0.017973
      dxy     :     0.000000
      f0      :     0.001759  f :     0.016213
      f+1     :     0.000010
      f-1     :     0.005119
      f+2     :     0.007048
      f-2     :     0.000000
      f+3     :     0.000191
      f-3     :     0.002086
  1 H s       :     0.591116  s :     0.591116
      pz      :     0.203271  p :     0.563029
      px      :     0.172194
      py      :     0.187564
      dz2     :     0.078920  d :     0.355401
      dxz     :     0.043455
      dyz     :     0.093347
      dx2y2   :     0.068116
      dxy     :     0.071562
  2 H s       :     0.591116  s :     0.591116
      pz      :     0.203272  p :     0.563030
      px      :     0.172194
      py      :     0.187564
      dz2     :     0.078920  d :     0.355401
      dxz     :     0.043455
      dyz     :     0.093347
      dx2y2   :     0.068116
      dxy     :     0.071562


                      *****************************
                      * MAYER POPULATION ANALYSIS *
                      *****************************

  NA   - Mulliken gross atomic population
  ZA   - Total nuclear charge
  QA   - Mulliken gross atomic charge
  VA   - Mayer's total valence
  BVA  - Mayer's bonded valence
  FA   - Mayer's free valence

  ATOM       NA         ZA         QA         VA         BVA        FA
  0 O      8.3421     8.0000    -0.3421     2.0346     2.0346    -0.0000
  1 H      0.8290     1.0000     0.1710     1.0605     1.0605    -0.0000
  2 H      0.8290     1.0000     0.1710     1.0605     1.0605    -0.0000

  Mayer bond orders larger than 0.100000
B(  0-O ,  1-H ) :   1.0173 B(  0-O ,  2-H ) :   1.0173 

-------
TIMINGS
-------

Total SCF time: 0 days 0 hours 0 min 0 sec 

Total time                  ....       0.527 sec
Sum of individual times     ....       0.370 sec  ( 70.2%)

Fock matrix formation       ....       0.257 sec  ( 48.8%)
  Split-RI-J                ....       0.189 sec  ( 73.4% of F)
  XC integration            ....       0.041 sec  ( 16.0% of F)
    Basis function eval.    ....       0.003 sec  (  6.3% of XC)
    Density eval.           ....       0.004 sec  (  8.8% of XC)
    XC-Functional eval.     ....       0.002 sec  (  4.8% of XC)
    XC-Potential eval.      ....       0.007 sec  ( 16.3% of XC)
Diagonalization             ....       0.001 sec  (  0.2%)
Density matrix formation    ....       0.002 sec  (  0.5%)
Population analysis         ....       0.003 sec  (  0.5%)
Initial guess               ....       0.005 sec  (  0.9%)
Orbital Transformation      ....       0.000 sec  (  0.0%)
Orbital Orthonormalization  ....       0.002 sec  (  0.4%)
DIIS solution               ....       0.000 sec  (  0.0%)
SOSCF solution              ....       0.001 sec  (  0.2%)
Grid generation             ....       0.101 sec  ( 19.1%)


-------------------------------------------------------------------------------
                          DFT DISPERSION CORRECTION                            
                                                                               
                              DFTD3 V3.1  Rev 1                                
                          USING Becke-Johnson damping                          
-------------------------------------------------------------------------------
The TPSS functional is recognized
Active option DFTDOPT                   ...         4   

molecular C6(AA) [au] = 44.538240 


            DFT-D V3
 parameters
 s6 scaling factor         :     1.0000 
 a1 scaling factor         :     0.4535 
 s8 scaling factor         :     1.9435 
 a2 scaling factor         :     4.4752 
 ad hoc parameters k1-k3   :    16.0000     1.3333    -4.0000 

 Edisp/kcal,au: -0.263847745861  -0.000420468102 
 E6   /kcal   :  -0.151569854 
 E8   /kcal   :  -0.112277892 
 % E8         :  42.554046300 

-------------------------   ----------------
Dispersion correction           -0.000420468
-------------------------   ----------------


-------------------------   --------------------
FINAL SINGLE POINT ENERGY       -76.467340748787
-------------------------   --------------------

                                *** OPTIMIZATION RUN DONE ***

                            ***************************************
                            *     ORCA property calculations      *
                            ***************************************

                                    ---------------------
                                    Active property flags
                                    ---------------------
   (+) Dipole Moment


------------------------------------------------------------------------------
                       ORCA ELECTRIC PROPERTIES CALCULATION
------------------------------------------------------------------------------

Dipole Moment Calculation                       ... on
Quadrupole Moment Calculation                   ... off
Polarizability Calculation                      ... off
GBWName                                         ... 01_H2O.gbw
Electron density file                           ... 01_H2O.scfp
The origin for moment calculation is the CENTER OF MASS  = ( 0.000000,  0.000001 -0.540546)

-------------
DIPOLE MOMENT
-------------
                                X             Y             Z
Electronic contribution:     -0.00000       0.00000       0.27805
Nuclear contribution   :      0.00000      -0.00000      -0.99128
                        -----------------------------------------
Total Dipole Moment    :     -0.00000       0.00000      -0.71323
                        -----------------------------------------
Magnitude (a.u.)       :      0.71323
Magnitude (Debye)      :      1.81288



--------------------
Rotational spectrum 
--------------------
 
Rotational constants in cm-1:    26.554658    14.321600     9.303816 
Rotational constants in MHz : 796088.611736 429350.761785 278921.388755 

 Dipole components along the rotational axes: 
x,y,z [a.u.] :     0.000001    -0.713227    -0.000000 
x,y,z [Debye]:     0.000002    -1.812880    -0.000000 

 

----------------------------------------------------------------------------
                           ORCA NUMERICAL FREQUENCIES
                              (24-process run)
----------------------------------------------------------------------------

Number of atoms                ... 3
Central differences            ... used
Number of displacements        ... 18
Numerical increment            ... 5.000e-03 bohr
IR-spectrum generation         ... on
Raman-spectrum generation      ... off
Surface Crossing Hessian       ... off

 WARNING: There are more processes than displacements to do
  ====> : Reducing number of processes to   9

The output will be reduced. Please look at the following files:
SCF program output             ... >01_H2O.lastscf
Integral program output        ... >01_H2O.lastint
Gradient program output        ... >01_H2O.lastgrad
Dipole moment program output   ... >01_H2O.lastmom
AutoCI program output          ... >01_H2O.lastautoci


         <<< Energy and Gradient at the input geometry >>>

        <<< Energy and Gradient at displaced geometries >>>
             <<<Displacing   3/coordinate 3 (+)>>>
             <<<Displacing   2/coordinate 3 (+)>>>
             <<<Displacing   1/coordinate 1 (+)>>>
             <<<Displacing   1/coordinate 3 (+)>>>
             <<<Displacing   3/coordinate 1 (+)>>>
             <<<Displacing   2/coordinate 1 (+)>>>
             <<<Displacing   2/coordinate 2 (+)>>>
             <<<Displacing   3/coordinate 2 (+)>>>
             <<<Displacing   1/coordinate 2 (+)>>>
             <<<Displacing   1/coordinate 2 (-)>>>
             <<<Displacing   3/coordinate 1 (-)>>>
             <<<Displacing   2/coordinate 1 (-)>>>
             <<<Displacing   3/coordinate 3 (-)>>>
             <<<Displacing   2/coordinate 3 (-)>>>
             <<<Displacing   2/coordinate 2 (-)>>>
             <<<Displacing   1/coordinate 3 (-)>>>
             <<<Displacing   3/coordinate 2 (-)>>>
             <<<Displacing   1/coordinate 1 (-)>>>

-----------------------
VIBRATIONAL FREQUENCIES
-----------------------

Scaling factor for frequencies =  1.000000000 (already applied!)

   0:         0.00 cm**-1
   1:         0.00 cm**-1
   2:         0.00 cm**-1
   3:         0.00 cm**-1
   4:         0.00 cm**-1
   5:         0.00 cm**-1
   6:      1631.56 cm**-1
   7:      3698.89 cm**-1
   8:      3801.52 cm**-1


------------
NORMAL MODES
------------

These modes are the cartesian displacements weighted by the diagonal matrix
M(i,i)=1/sqrt(m[i]) where m[i] is the mass of the displaced atom
Thus, these vectors are normalized but *not* orthogonal

                  0          1          2          3          4          5    
      0       0.000000   0.000000   0.000000   0.000000   0.000000   0.000000
      1       0.000000   0.000000   0.000000   0.000000   0.000000   0.000000
      2       0.000000   0.000000   0.000000   0.000000   0.000000   0.000000
      3       0.000000   0.000000   0.000000   0.000000   0.000000   0.000000
      4       0.000000   0.000000   0.000000   0.000000   0.000000   0.000000
      5       0.000000   0.000000   0.000000   0.000000   0.000000   0.000000
      6       0.000000   0.000000   0.000000   0.000000   0.000000   0.000000
      7       0.000000   0.000000   0.000000   0.000000   0.000000   0.000000
      8       0.000000   0.000000   0.000000   0.000000   0.000000   0.000000
                   6          7          8    
      0       0.000000   0.000000   0.000000
      1       0.000000  -0.000005  -0.070108
      2       0.070939  -0.049549   0.000004
      3       0.000000   0.000000   0.000000
      4       0.424908   0.586679   0.556335
      5      -0.562971   0.393253   0.433547
      6       0.000000   0.000000   0.000000
      7      -0.424909  -0.586603   0.556417
      8      -0.562971   0.393195  -0.433604


-----------
IR SPECTRUM  
-----------

 Mode    freq (cm**-1)   T**2         TX         TY         TZ
-------------------------------------------------------------------
   6:      1631.56   66.325674  ( -0.000001  -0.000008  -8.144058)
   7:      3698.89    1.463532  ( -0.000000   0.000437   1.209765)
   8:      3801.52   42.477449  ( -0.000009   6.517473  -0.000066)

The first frequency considered to be a vibration is 6
The total number of vibrations considered is 3


--------------------------
THERMOCHEMISTRY AT 298.15K
--------------------------

Temperature         ... 298.15 K
Pressure            ... 1.00 atm
Total Mass          ... 18.02 AMU

Throughout the following assumptions are being made:
  (1) The electronic state is orbitally nondegenerate
  (2) There are no thermally accessible electronically excited states
  (3) Hindered rotations indicated by low frequency modes are not
      treated as such but are treated as vibrations and this may
      cause some error
  (4) All equations used are the standard statistical mechanics
      equations for an ideal gas
  (5) All vibrations are strictly harmonic

freq.    1631.56  E(vib)   ...       0.00 
freq.    3698.89  E(vib)   ...       0.00 
freq.    3801.52  E(vib)   ...       0.00 

------------
INNER ENERGY
------------

The inner energy is: U= E(el) + E(ZPE) + E(vib) + E(rot) + E(trans)
    E(el)   - is the total energy from the electronic structure calculation
              = E(kin-el) + E(nuc-el) + E(el-el) + E(nuc-nuc)
    E(ZPE)  - the the zero temperature vibrational energy from the frequency calculation
    E(vib)  - the the finite temperature correction to E(ZPE) due to population
              of excited vibrational states
    E(rot)  - is the rotational thermal energy
    E(trans)- is the translational thermal energy

Summary of contributions to the inner energy U:
Electronic energy                ...    -76.46734075 Eh
Zero point energy                ...      0.02080415 Eh      13.05 kcal/mol
Thermal vibrational correction   ...      0.00000283 Eh       0.00 kcal/mol
Thermal rotational correction    ...      0.00141627 Eh       0.89 kcal/mol
Thermal translational correction ...      0.00141627 Eh       0.89 kcal/mol
-----------------------------------------------------------------------
Total thermal energy                    -76.44370122 Eh


Summary of corrections to the electronic energy:
(perhaps to be used in another calculation)
Total thermal correction                  0.00283538 Eh       1.78 kcal/mol
Non-thermal (ZPE) correction              0.02080415 Eh      13.05 kcal/mol
-----------------------------------------------------------------------
Total correction                          0.02363952 Eh      14.83 kcal/mol


--------
ENTHALPY
--------

The enthalpy is H = U + kB*T
                kB is Boltzmann's constant
Total free energy                 ...    -76.44370122 Eh 
Thermal Enthalpy correction       ...      0.00094421 Eh       0.59 kcal/mol
-----------------------------------------------------------------------
Total Enthalpy                    ...    -76.44275701 Eh


Note: Rotational entropy computed according to Herzberg 
Infrared and Raman Spectra, Chapter V,1, Van Nostrand Reinhold, 1945 
Point Group:  Cs, Symmetry Number:   1  
Rotational constants in cm-1:    26.554658    14.321600     9.303816 

Vibrational entropy computed according to the QRRHO of S. Grimme
Chem.Eur.J. 2012 18 9955


-------
ENTROPY
-------

The entropy contributions are T*S = T*(S(el)+S(vib)+S(rot)+S(trans))
     S(el)   - electronic entropy
     S(vib)  - vibrational entropy
     S(rot)  - rotational entropy
     S(trans)- translational entropy
The entropies will be listed as mutliplied by the temperature to get
units of energy

Electronic entropy                ...      0.00000000 Eh      0.00 kcal/mol
Vibrational entropy               ...      0.00000319 Eh      0.00 kcal/mol
Rotational entropy                ...      0.00565317 Eh      3.55 kcal/mol
Translational entropy             ...      0.01644380 Eh     10.32 kcal/mol
-----------------------------------------------------------------------
Final entropy term                ...      0.02210016 Eh     13.87 kcal/mol

In case the symmetry of your molecule has not been determined correctly
or in case you have a reason to use a different symmetry number we print 
out the resulting rotational entropy values for sn=1,12 :
 --------------------------------------------------------
|  sn= 1 | S(rot)=       0.00565317 Eh      3.55 kcal/mol|
|  sn= 2 | S(rot)=       0.00499871 Eh      3.14 kcal/mol|
|  sn= 3 | S(rot)=       0.00461588 Eh      2.90 kcal/mol|
|  sn= 4 | S(rot)=       0.00434426 Eh      2.73 kcal/mol|
|  sn= 5 | S(rot)=       0.00413357 Eh      2.59 kcal/mol|
|  sn= 6 | S(rot)=       0.00396143 Eh      2.49 kcal/mol|
|  sn= 7 | S(rot)=       0.00381588 Eh      2.39 kcal/mol|
|  sn= 8 | S(rot)=       0.00368980 Eh      2.32 kcal/mol|
|  sn= 9 | S(rot)=       0.00357859 Eh      2.25 kcal/mol|
|  sn=10 | S(rot)=       0.00347911 Eh      2.18 kcal/mol|
|  sn=11 | S(rot)=       0.00338912 Eh      2.13 kcal/mol|
|  sn=12 | S(rot)=       0.00330697 Eh      2.08 kcal/mol|
 --------------------------------------------------------


-------------------
GIBBS FREE ENERGY
-------------------

The Gibbs free energy is G = H - T*S

Total enthalpy                    ...    -76.44275701 Eh 
Total entropy correction          ...     -0.02210016 Eh    -13.87 kcal/mol
-----------------------------------------------------------------------
Final Gibbs free energy         ...    -76.46485718 Eh

For completeness - the Gibbs free energy minus the electronic energy
G-E(el)                           ...      0.00248357 Eh      1.56 kcal/mol


Total Time for Numerical Frequencies  :        12.497 sec

Timings for individual modules:

Sum of individual times         ...       49.620 sec (=   0.827 min)
GTO integral calculation        ...       10.213 sec (=   0.170 min)  20.6 %
SCF iterations                  ...       27.043 sec (=   0.451 min)  54.5 %
SCF Gradient evaluation         ...       11.941 sec (=   0.199 min)  24.1 %
Geometry relaxation             ...        0.423 sec (=   0.007 min)   0.9 %
                             ****ORCA TERMINATED NORMALLY****
TOTAL RUN TIME: 0 days 0 hours 1 minutes 1 seconds 420 msec
