
                                 *****************
                                 * O   R   C   A *
                                 *****************

           --- An Ab Initio, DFT and Semiempirical electronic structure package ---

                  #######################################################
                  #                        -***-                        #
                  #          Department of theory and spectroscopy      #
                  #               Directorship: Frank Neese             #
                  #        Max Planck Institute fuer Kohlenforschung    #
                  #                Kaiser Wilhelm Platz 1               #
                  #                 D-45470 Muelheim/Ruhr               #
                  #                      Germany                        #
                  #                                                     #
                  #                  All rights reserved                #
                  #                        -***-                        #
                  #######################################################


                         Program Version 4.2.0 -  RELEASE  -


 With contributions from (in alphabetic order):
   Daniel Aravena         : Magnetic Suceptibility
   Michael Atanasov       : Ab Initio Ligand Field Theory (pilot matlab implementation)
   Alexander A. Auer      : GIAO ZORA, VPT2
   Ute Becker             : Parallelization
   Giovanni Bistoni       : ED, misc. LED, open-shell LED, HFLED
   Martin Brehm           : Molecular dynamics
   Dmytro Bykov           : SCF Hessian
   Vijay G. Chilkuri      : MRCI spin determinant printing, contributions to CSF-ICE
   Dipayan Datta          : RHF DLPNO-CCSD density
   Achintya Kumar Dutta   : EOM-CC, STEOM-CC
   Dmitry Ganyushin       : Spin-Orbit,Spin-Spin,Magnetic field MRCI
   Miquel Garcia          : C-PCM Hessian, Gaussian charge scheme
   Yang Guo               : DLPNO-NEVPT2, CIM, IAO-localization
   Andreas Hansen         : Spin unrestricted coupled pair/coupled cluster methods
   Benjamin Helmich-Paris : CASSCF linear response (MC-RPA)
   Lee Huntington         : MR-EOM, pCC
   Robert Izsak           : Overlap fitted RIJCOSX, COSX-SCS-MP3, EOM
   Christian Kollmar      : KDIIS, OOCD, Brueckner-CCSD(T), CCSD density
   Simone Kossmann        : Meta GGA functionals, TD-DFT gradient, OOMP2, MP2 Hessian
   Martin Krupicka        : AUTO-CI
   Lucas Lang             : DCDCAS
   Dagmar Lenk            : GEPOL surface, SMD
   Dimitrios Liakos       : Extrapolation schemes; Compound Job, initial MDCI parallelization
   Dimitrios Manganas     : Further ROCIS development; embedding schemes
   Dimitrios Pantazis     : SARC Basis sets
   Taras Petrenko         : DFT Hessian,TD-DFT gradient, ASA, ECA, R-Raman, ABS, FL, XAS/XES, NRVS
   Peter Pinski           : DLPNO-MP2, DLPNO-MP2 Gradient
   Christoph Reimann      : Effective Core Potentials
   Marius Retegan         : Local ZFS, SOC
   Christoph Riplinger    : Optimizer, TS searches, QM/MM, DLPNO-CCSD(T), (RO)-DLPNO pert. Triples
   Tobias Risthaus        : Range-separated hybrids, TD-DFT gradient, RPA, STAB
   Michael Roemelt        : Original ROCIS implementation
   Masaaki Saitow         : Open-shell DLPNO-CCSD energy and density
   Barbara Sandhoefer     : DKH picture change effects
   Avijit Sen             : IP-ROCIS
   Kantharuban Sivalingam : CASSCF convergence, NEVPT2, FIC-MRCI
   Bernardo de Souza      : ESD, SOC TD-DFT
   Georgi Stoychev        : AutoAux, RI-MP2 NMR
   Willem Van den Heuvel  : Paramagnetic NMR
   Boris Wezisla          : Elementary symmetry handling
   Frank Wennmohs         : Technical directorship


 We gratefully acknowledge several colleagues who have allowed us to
 interface, adapt or use parts of their codes:
   Stefan Grimme, W. Hujo, H. Kruse,             : VdW corrections, initial TS optimization,
                  C. Bannwarth                     DFT functionals, gCP, sTDA/sTD-DF
   Ed Valeev, F. Pavosevic, A. Kumar             : LibInt (2-el integral package), F12 methods
   Garnet Chan, S. Sharma, J. Yang, R. Olivares  : DMRG
   Ulf Ekstrom                                   : XCFun DFT Library
   Mihaly Kallay                                 : mrcc  (arbitrary order and MRCC methods)
   Andreas Klamt, Michael Diedenhofen            : otool_cosmo (COSMO solvation model)
   Jiri Pittner, Ondrej Demel                    : Mk-CCSD
   Frank Weinhold                                : gennbo (NPA and NBO analysis)
   Christopher J. Cramer and Donald G. Truhlar   : smd solvation model
   Lars Goerigk                                  : TD-DFT with DH, B97 family of functionals
   V. Asgeirsson, H. Jonsson                     : NEB implementation
   FAccTs GmbH                                   : IRC, NEB, NEB-TS, Multilevel, MM, QM/MM, CI optimization
   S Lehtola, MJT Oliveira, MAL Marques          : LibXC Library


 Your calculation uses the libint2 library for the computation of 2-el integrals
 For citations please refer to: http://libint.valeyev.net

 Your ORCA version has been built with support for libXC version: 4.2.3
 For citations please refer to: https://tddft.org/programs/libxc/

 This ORCA versions uses:
   CBLAS   interface :  Fast vector & matrix operations
   LAPACKE interface :  Fast linear algebra routines
   SCALAPACK package :  Parallel linear algebra routines


Your calculation utilizes the atom-pairwise dispersion correction
with the Becke-Johnson damping scheme (D3BJ)
Cite in your paper:
S.Grimme, S.Ehrlich, L.Goerigk, J Comput Chem, (2011), 32, 1456–1465 
S.Grimme, J.Antony, S.Ehrlich and H.Krieg, J.Chem.Phys., 132, (2010), 154104 
   

----- Orbital basis set information -----
Your calculation utilizes the basis: aug-cc-pV(T+d)Z 
             Al - Ar: T.H. Dunning, Jr., K. A. Peterson and A. K. Wilson, J. Chem. Phys.
                      114, 9244 (2001)

----- AuxJ basis set information -----
Your calculation utilizes the auxiliary basis: def2/J
   F. Weigend, Phys. Chem. Chem. Phys. 8, 1057 (2006).

================================================================================
                                        WARNINGS
                       Please study these warnings very carefully!
================================================================================


WARNING: Geometry Optimization
  ===> : Switching off AutoStart
         For restart on a previous wavefunction, please use MOREAD

INFO   : the flag for use of LIBINT has been found!

================================================================================
                                       INPUT FILE
================================================================================
NAME = 02_H2O_2.in
|  1> #
|  2> # 02_H2O_2 tpss/aug-cc-pvt(+d)z
|  3> #
|  4> ! tpss d3bj aug-cc-pvt(+d)z def2/j grid4 nofinalgrid opt xyzfile numfreq
|  5> 
|  6> *xyz 0 1
|  7> O	0.12629641	2.81863838	0
|  8> H	-1.55012056	3.50228598	0
|  9> H	-0.11213325	1.01044862	0
| 10> O	-0.11743248	-2.68035303	0
| 11> H	0.7607884	-3.35371171	-1.4365769
| 12> H	0.7607884	-3.35371171	1.4365769
| 13> *
| 14> 
| 15> %maxcore 5000
| 16> 
| 17> %pal
| 18> nprocs 24
| 19> end
| 20> 
| 21> 
| 22>                          ****END OF INPUT****
================================================================================

                       *****************************
                       * Geometry Optimization Run *
                       *****************************

Geometry optimization settings:
Update method            Update   .... BFGS
Choice of coordinates    CoordSys .... Z-matrix Internals
Initial Hessian          InHess   .... Almoef's Model

Convergence Tolerances:
Energy Change            TolE     ....  5.0000e-06 Eh
Max. Gradient            TolMAXG  ....  3.0000e-04 Eh/bohr
RMS Gradient             TolRMSG  ....  1.0000e-04 Eh/bohr
Max. Displacement        TolMAXD  ....  4.0000e-03 bohr
RMS Displacement         TolRMSD  ....  2.0000e-03 bohr
Strict Convergence                ....  False
------------------------------------------------------------------------------
                        ORCA OPTIMIZATION COORDINATE SETUP
------------------------------------------------------------------------------

The optimization will be done in new redundant internal coordinates
Making redundant internal coordinates   ...  (new redundants) done
Evaluating the initial hessian          ...  (Almloef) done
Evaluating the coordinates              ...  done
Calculating the B-matrix                .... done
Calculating the G-matrix                .... done
Diagonalizing the G-matrix              .... done
The first mode is                       ....    1
The number of degrees of freedom        ....   12

    -----------------------------------------------------------------
                    Redundant Internal Coordinates


    -----------------------------------------------------------------
         Definition                    Initial Value    Approx d2E/dq
    -----------------------------------------------------------------
      1. B(H   1,O   0)                  1.8105         0.022862   
      2. B(H   2,O   0)                  1.8238         0.021765   
      3. B(O   3,H   2)                  3.6908         0.000023   
      4. B(H   4,O   3)                  1.8134         0.022616   
      5. B(H   5,O   3)                  1.8134         0.022616   
      6. A(H   1,O   0,H   2)          104.6740         0.144976   
      7. A(O   0,H   2,O   3)          172.5705         0.100722   
      8. A(H   2,O   3,H   4)          111.7543         0.100824   
      9. A(H   4,O   3,H   5)          104.7829         0.145326   
     10. A(H   2,O   3,H   5)          111.7543         0.100824   
     11. D(O   3,H   2,O   0,H   1)    180.0000         0.001722   
     12. D(H   5,O   3,H   2,O   0)     58.5333         0.001500   
     13. D(H   4,O   3,H   2,O   0)    -58.5333         0.001500   
    -----------------------------------------------------------------

Number of atoms                         .... 6
Number of degrees of freedom            .... 13

         *************************************************************
         *                GEOMETRY OPTIMIZATION CYCLE   1            *
         *************************************************************
---------------------------------
CARTESIAN COORDINATES (ANGSTROEM)
---------------------------------
  O      0.126296    2.818638    0.000000
  H     -1.550121    3.502286    0.000000
  H     -0.112133    1.010449    0.000000
  O     -0.117432   -2.680353    0.000000
  H      0.760788   -3.353712   -1.436577
  H      0.760788   -3.353712    1.436577

----------------------------
CARTESIAN COORDINATES (A.U.)
----------------------------
  NO LB      ZA    FRAG     MASS         X           Y           Z
   0 O     8.0000    0    15.999    0.238666    5.326455    0.000000
   1 H     1.0000    0     1.008   -2.929303    6.618361    0.000000
   2 H     1.0000    0     1.008   -0.211901    1.909471    0.000000
   3 O     8.0000    0    15.999   -0.221915   -5.065133    0.000000
   4 H     1.0000    0     1.008    1.437682   -6.337597   -2.714737
   5 H     1.0000    0     1.008    1.437682   -6.337597    2.714737

--------------------------------
INTERNAL COORDINATES (ANGSTROEM)
--------------------------------
 O      0   0   0     0.000000000000     0.00000000     0.00000000
 H      1   0   0     1.810455163292     0.00000000     0.00000000
 H      1   2   0     1.823841799865   104.67403357     0.00000000
 O      3   1   2     3.690805454299   172.57052396   180.00000000
 H      4   3   1     1.813404812945   111.75429995   301.46668203
 H      4   3   1     1.813404812945   111.75429995    58.53331797

---------------------------
INTERNAL COORDINATES (A.U.)
---------------------------
 O      0   0   0     0.000000000000     0.00000000     0.00000000
 H      1   0   0     3.421264436365     0.00000000     0.00000000
 H      1   2   0     3.446561513344   104.67403357     0.00000000
 O      3   1   2     6.974611522207   172.57052396   180.00000000
 H      4   3   1     3.426838466401   111.75429995   301.46668203
 H      4   3   1     3.426838466401   111.75429995    58.53331797

---------------------
BASIS SET INFORMATION
---------------------
There are 2 groups of distinct atoms

 Group   1 Type O   : 19s6p3d2f contracted to 5s4p3d2f pattern {88111/3111/111/11}
 Group   2 Type H   : 6s3p2d contracted to 4s3p2d pattern {3111/111/11}

Atom   0O    basis set group =>   1
Atom   1H    basis set group =>   2
Atom   2H    basis set group =>   2
Atom   3O    basis set group =>   1
Atom   4H    basis set group =>   2
Atom   5H    basis set group =>   2
---------------------------------
AUXILIARY/J BASIS SET INFORMATION
---------------------------------
There are 2 groups of distinct atoms

 Group   1 Type O   : 12s5p4d2f1g contracted to 6s4p3d1f1g pattern {711111/2111/211/2/1}
 Group   2 Type H   : 5s2p1d contracted to 3s1p1d pattern {311/2/1}

Atom   0O    basis set group =>   1
Atom   1H    basis set group =>   2
Atom   2H    basis set group =>   2
Atom   3O    basis set group =>   1
Atom   4H    basis set group =>   2
Atom   5H    basis set group =>   2


           ************************************************************
           *        Program running with 24 parallel MPI-processes    *
           *              working on a common directory               *
           ************************************************************
------------------------------------------------------------------------------
                           ORCA GTO INTEGRAL CALCULATION
                           -- RI-GTO INTEGRALS CHOSEN --
------------------------------------------------------------------------------

                         BASIS SET STATISTICS AND STARTUP INFO

Gaussian basis set:
 # of primitive gaussian shells          ...  104
 # of primitive gaussian functions       ...  232
 # of contracted shells                  ...   64
 # of contracted basis functions         ...  184
 Highest angular momentum                ...    3
 Maximum contraction depth               ...    8
Auxiliary gaussian basis set:
 # of primitive gaussian shells          ...   80
 # of primitive gaussian functions       ...  204
 # of contracted shells                  ...   50
 # of contracted aux-basis functions     ...  142
 Highest angular momentum                ...    4
 Maximum contraction depth               ...    7
Ratio of auxiliary to basis functions    ...  0.77
Integral package used                  ... LIBINT
 One Electron integrals                  ... done
 Ordering auxiliary basis shells         ... done
 Integral threshhold             Thresh  ...  2.500e-11
 Primitive cut-off               TCut    ...  2.500e-12
 Pre-screening matrix                    ... done
 Shell pair data                         ... 
 Ordering of the shell pairs             ... done (   0.000 sec) 1773 of 2080 pairs
 Determination of significant pairs      ... done (   0.000 sec)
 Creation of shell pair data             ... done (   0.000 sec)
 Storage of shell pair data              ... done (   0.044 sec)
 Shell pair data done in (   0.045 sec)
 Computing two index integrals           ... done
 Cholesky decomposition of the V-matrix  ... done


Timings:
 Total evaluation time                   ...   0.261 sec (  0.004 min)
 One electron matrix time                ...   0.015 sec (  0.000 min) =  5.9%
 Schwartz matrix evaluation time         ...   0.112 sec (  0.002 min) = 43.0%
 Two index repulsion integral time       ...   0.001 sec (  0.000 min) =  0.3%
 Cholesky decomposition of V             ...   0.067 sec (  0.001 min) = 25.7%
 Three index repulsion integral time     ...   0.000 sec (  0.000 min) =  0.0%



           ************************************************************
           *        Program running with 24 parallel MPI-processes    *
           *              working on a common directory               *
           ************************************************************
-------------------------------------------------------------------------------
                                 ORCA SCF
-------------------------------------------------------------------------------

------------
SCF SETTINGS
------------
Hamiltonian:
 Density Functional     Method          .... DFT(GTOs)
 Exchange Functional    Exchange        .... TPSS
 Correlation Functional Correlation     .... TPSS
 LDA part of GGA corr.  LDAOpt          .... PW91-LDA
 Gradients option       PostSCFGGA      .... off
   Density functional embedding theory  .... OFF
   NL short-range parameter             ....  5.000000
 RI-approximation to the Coulomb term is turned on
   Number of auxiliary basis functions  .... 142


General Settings:
 Integral files         IntName         .... 02_H2O_2
 Hartree-Fock type      HFTyp           .... RHF
 Total Charge           Charge          ....    0
 Multiplicity           Mult            ....    1
 Number of Electrons    NEL             ....   20
 Basis Dimension        Dim             ....  184
 Nuclear Repulsion      ENuc            ....     19.3626333336 Eh

Convergence Acceleration:
 DIIS                   CNVDIIS         .... on
   Start iteration      DIISMaxIt       ....    12
   Startup error        DIISStart       ....  0.200000
   # of expansion vecs  DIISMaxEq       ....     5
   Bias factor          DIISBfac        ....   1.050
   Max. coefficient     DIISMaxC        ....  10.000
 Newton-Raphson         CNVNR           .... off
 SOSCF                  CNVSOSCF        .... on
   Start iteration      SOSCFMaxIt      ....   150
   Startup grad/error   SOSCFStart      ....  0.003300
 Level Shifting         CNVShift        .... on
   Level shift para.    LevelShift      ....    0.2500
   Turn off err/grad.   ShiftErr        ....    0.0010
 Zerner damping         CNVZerner       .... off
 Static damping         CNVDamp         .... on
   Fraction old density DampFac         ....    0.7000
   Max. Damping (<1)    DampMax         ....    0.9800
   Min. Damping (>=0)   DampMin         ....    0.0000
   Turn off err/grad.   DampErr         ....    0.1000
 Fernandez-Rico         CNVRico         .... off

SCF Procedure:
 Maximum # iterations   MaxIter         ....   125
 SCF integral mode      SCFMode         .... Direct
   Integral package                     .... LIBINT
 Reset frequency        DirectResetFreq ....    20
 Integral Threshold     Thresh          ....  2.500e-11 Eh
 Primitive CutOff       TCut            ....  2.500e-12 Eh

Convergence Tolerance:
 Convergence Check Mode ConvCheckMode   .... Total+1el-Energy
 Convergence forced     ConvForced      .... 0
 Energy Change          TolE            ....  1.000e-08 Eh
 1-El. energy change                    ....  1.000e-05 Eh
 Orbital Gradient       TolG            ....  1.000e-05
 Orbital Rotation angle TolX            ....  1.000e-05
 DIIS Error             TolErr          ....  5.000e-07


Diagonalization of the overlap matrix:
Smallest eigenvalue                        ... 2.067e-03
Time for diagonalization                   ...    0.018 sec
Threshold for overlap eigenvalues          ... 1.000e-08
Number of eigenvalues below threshold      ... 0
Time for construction of square roots      ...    0.003 sec
Total time needed                          ...    0.021 sec

-------------------
DFT GRID GENERATION
-------------------

General Integration Accuracy     IntAcc      ...  4.670
Radial Grid Type                 RadialGrid  ... Gauss-Chebyshev
Angular Grid (max. acc.)         AngularGrid ... Lebedev-302
Angular grid pruning method      GridPruning ... 3 (G Style)
Weight generation scheme         WeightScheme... Becke
Basis function cutoff            BFCut       ...    1.0000e-11
Integration weight cutoff        WCut        ...    1.0000e-14
Grids for H and He will be reduced by one unit

# of grid points (after initial pruning)     ...  26000 (   0.0 sec)
# of grid points (after weights+screening)   ...  25747 (   0.0 sec)
nearest neighbour list constructed           ...    0.0 sec
Grid point re-assignment to atoms done       ...    0.0 sec
Grid point division into batches done        ...    0.1 sec
Reduced shell lists constructed in    0.1 sec

Total number of grid points                  ...    25747
Total number of batches                      ...      405
Average number of points per batch           ...       63
Average number of grid points per atom       ...     4291
Average number of shells per batch           ...    26.33 (41.15%)
Average number of basis functions per batch  ...    67.33 (36.59%)
Average number of large shells per batch     ...    19.17 (72.78%)
Average number of large basis fcns per batch ...    46.83 (69.55%)
Maximum spatial batch extension              ...  12.44, 14.34, 16.88 au
Average spatial batch extension              ...   0.31,  0.35,  0.36 au

Time for grid setup =    0.179 sec

------------------------------
INITIAL GUESS: MODEL POTENTIAL
------------------------------
Loading Hartree-Fock densities                     ... done
Calculating cut-offs                               ... done
Setting up the integral package                    ... done
Initializing the effective Hamiltonian             ... done
Starting the Coulomb interaction                   ... done (   0.0 sec)
Reading the grid                                   ... done
Mapping shells                                     ... done
Starting the XC term evaluation                    ... done (   0.0 sec)
  promolecular density results
     # of electrons  =     19.998065321
     EX              =    -17.094578234
     EC              =     -0.572957010
     EX+EC           =    -17.667535243
Transforming the Hamiltonian                       ... done (   0.0 sec)
Diagonalizing the Hamiltonian                      ... done (   0.0 sec)
Back transforming the eigenvectors                 ... done (   0.0 sec)
Now organizing SCF variables                       ... done
                      ------------------
                      INITIAL GUESS DONE (   0.3 sec)
                      ------------------
--------------
SCF ITERATIONS
--------------
ITER       Energy         Delta-E        Max-DP      RMS-DP      [F,P]     Damp
               ***  Starting incremental Fock matrix formation  ***
  0   -151.7768616334   0.000000000000 0.10241796  0.00266120  0.4541194 0.7000
  1   -152.1535441548  -0.376682521393 0.05170734  0.00127116  0.0644116 0.7000
  2   -152.1086878062   0.044856348580 0.03066055  0.00075133  0.2131829 0.7000
                               ***Turning on DIIS***
  3   -152.2100494005  -0.101361594279 0.07062770  0.00195691  0.0675149 0.0000
  4   -152.1764969124   0.033552488140 0.00776126  0.00018954  0.2915249 0.7000
  5   -152.2112766404  -0.034779727978 0.00909492  0.00021584  0.2576937 0.7000
  6   -152.2482659179  -0.036989277535 0.00878484  0.00020366  0.2178791 0.7000
  7   -152.2786160646  -0.030350146748 0.00787500  0.00018431  0.1802432 0.7000
  8   -152.3015551218  -0.022939057147 0.01134328  0.00027456  0.1466184 0.7000
  9   -152.3259957573  -0.024440635537 0.02946137  0.00072718  0.0984938 0.0000
 10   -152.3480204052  -0.022024647911 0.00404334  0.00007799  0.0288535 0.0000
 11   -152.3492224717  -0.001202066463 0.00232103  0.00004552  0.0146253 0.0000
 12   -152.3495817803  -0.000359308577 0.00186464  0.00003639  0.0107718 0.0000
 13   -152.3496864387  -0.000104658392 0.00101911  0.00002071  0.0060523 0.0000
                      *** Initiating the SOSCF procedure ***
                           *** Shutting down DIIS ***
                      *** Re-Reading the Fockian *** 
                      *** Removing any level shift *** 
ITER      Energy       Delta-E        Grad      Rot      Max-DP    RMS-DP
 14   -152.34973647  -0.0000500331  0.000255  0.000255  0.000296  0.000007
               *** Restarting incremental Fock matrix formation ***
 15   -152.34974236  -0.0000058913  0.000542  0.004331  0.001951  0.000043
 16   -152.34965209   0.0000902740  0.003905  0.003683  0.001694  0.000037
 17   -152.34974419  -0.0000920960  0.000029  0.000180  0.000076  0.000002
 18   -152.34974408   0.0000001039  0.000137  0.000128  0.000054  0.000001
 19   -152.34974419  -0.0000001056  0.000024  0.000130  0.000102  0.000001
 20   -152.34974417   0.0000000151  0.000044  0.000107  0.000068  0.000001
 21   -152.34974420  -0.0000000257  0.000007  0.000022  0.000024  0.000000
 22   -152.34974420  -0.0000000019  0.000009  0.000010  0.000011  0.000000
                 **** Energy Check signals convergence ****
              ***Rediagonalizing the Fockian in SOSCF/NRSCF***

               *****************************************************
               *                     SUCCESS                       *
               *           SCF CONVERGED AFTER  23 CYCLES          *
               *****************************************************


----------------
TOTAL SCF ENERGY
----------------

Total Energy       :         -152.34974420 Eh           -4145.64730 eV

Components:
Nuclear Repulsion  :           19.36263333 Eh             526.88404 eV
Electronic Energy  :         -171.71237753 Eh           -4672.53134 eV
One Electron Energy:         -248.47339206 Eh           -6761.30474 eV
Two Electron Energy:           76.76101453 Eh            2088.77340 eV

Virial components:
Potential Energy   :         -302.81728246 Eh           -8240.07717 eV
Kinetic Energy     :          150.46753826 Eh            4094.42987 eV
Virial Ratio       :            2.01250905


DFT components:
N(Alpha)           :        9.999999000183 electrons
N(Beta)            :        9.999999000183 electrons
N(Total)           :       19.999998000366 electrons
E(X)               :      -17.268204063546 Eh       
E(C)               :       -0.593963865962 Eh       
E(XC)              :      -17.862167929509 Eh       
DFET-embed. en.    :        0.000000000000 Eh       

---------------
SCF CONVERGENCE
---------------

  Last Energy change         ...    4.8578e-10  Tolerance :   1.0000e-08
  Last MAX-Density change    ...    1.9932e-07  Tolerance :   1.0000e-07
  Last RMS-Density change    ...    4.7073e-09  Tolerance :   5.0000e-09
  Last Orbital Gradient      ...    2.5197e-07  Tolerance :   1.0000e-05
  Last Orbital Rotation      ...    3.5459e-07  Tolerance :   1.0000e-05

             **** THE GBW FILE WAS UPDATED (02_H2O_2.gbw) ****
             **** DENSITY FILE WAS UPDATED (02_H2O_2.scfp) ****
             **** ENERGY FILE WAS UPDATED (02_H2O_2.en.tmp) ****
             **** THE GBW FILE WAS UPDATED (02_H2O_2.gbw) ****
             **** DENSITY FILE WAS UPDATED (02_H2O_2.scfp) ****
----------------
ORBITAL ENERGIES
----------------

  NO   OCC          E(Eh)            E(eV) 
   0   2.0000     -18.966553      -516.1061 
   1   2.0000     -18.951729      -515.7028 
   2   2.0000      -0.836615       -22.7655 
   3   2.0000      -0.821698       -22.3595 
   4   2.0000      -0.337708        -9.1895 
   5   2.0000      -0.322830        -8.7847 
   6   2.0000      -0.317474        -8.6389 
   7   2.0000      -0.302665        -8.2359 
   8   2.0000      -0.258644        -7.0381 
   9   2.0000      -0.243644        -6.6299 
  10   0.0000      -0.197175        -5.3654 
  11   0.0000      -0.182247        -4.9592 
  12   0.0000      -0.169673        -4.6170 
  13   0.0000      -0.155383        -4.2282 
  14   0.0000       0.018951         0.5157 
  15   0.0000       0.027222         0.7407 
  16   0.0000       0.029506         0.8029 
  17   0.0000       0.039807         1.0832 
  18   0.0000       0.068281         1.8580 
  19   0.0000       0.089429         2.4335 
  20   0.0000       0.091830         2.4988 
  21   0.0000       0.101634         2.7656 
  22   0.0000       0.121077         3.2947 
  23   0.0000       0.127767         3.4767 
  24   0.0000       0.135777         3.6947 
  25   0.0000       0.143996         3.9183 
  26   0.0000       0.165612         4.5065 
  27   0.0000       0.170011         4.6262 
  28   0.0000       0.188542         5.1305 
  29   0.0000       0.192693         5.2434 
  30   0.0000       0.198566         5.4033 
  31   0.0000       0.219042         5.9604 
  32   0.0000       0.220820         6.0088 
  33   0.0000       0.226812         6.1719 
  34   0.0000       0.234963         6.3937 
  35   0.0000       0.249416         6.7870 
  36   0.0000       0.261976         7.1287 
  37   0.0000       0.337959         9.1963 
  38   0.0000       0.418828        11.3969 
  39   0.0000       0.454401        12.3649 
  40   0.0000       0.464050        12.6274 
  41   0.0000       0.477720        12.9994 
  42   0.0000       0.549102        14.9418 
  43   0.0000       0.552775        15.0418 
  44   0.0000       0.566044        15.4028 
  45   0.0000       0.569278        15.4908 
  46   0.0000       0.581806        15.8318 
  47   0.0000       0.590892        16.0790 
  48   0.0000       0.605088        16.4653 
  49   0.0000       0.613936        16.7060 
  50   0.0000       0.615293        16.7430 
  51   0.0000       0.634862        17.2755 
  52   0.0000       0.670109        18.2346 
  53   0.0000       0.680161        18.5081 
  54   0.0000       0.704463        19.1694 
  55   0.0000       0.716719        19.5029 
  56   0.0000       0.725033        19.7292 
  57   0.0000       0.725986        19.7551 
  58   0.0000       0.734026        19.9739 
  59   0.0000       0.738267        20.0893 
  60   0.0000       0.739806        20.1311 
  61   0.0000       0.755774        20.5657 
  62   0.0000       0.773372        21.0445 
  63   0.0000       0.781367        21.2621 
  64   0.0000       0.783916        21.3314 
  65   0.0000       0.813724        22.1425 
  66   0.0000       0.821664        22.3586 
  67   0.0000       0.836882        22.7727 
  68   0.0000       0.850172        23.1344 
  69   0.0000       0.851045        23.1581 
  70   0.0000       0.857914        23.3450 
  71   0.0000       0.869192        23.6519 
  72   0.0000       0.875365        23.8199 
  73   0.0000       0.899822        24.4854 
  74   0.0000       0.924892        25.1676 
  75   0.0000       0.959216        26.1016 
  76   0.0000       0.963974        26.2311 
  77   0.0000       0.971620        26.4391 
  78   0.0000       0.978859        26.6361 
  79   0.0000       1.000694        27.2303 
  80   0.0000       1.010721        27.5031 
  81   0.0000       1.031105        28.0578 
  82   0.0000       1.069357        29.0987 
  83   0.0000       1.071832        29.1660 
  84   0.0000       1.091022        29.6882 
  85   0.0000       1.097863        29.8744 
  86   0.0000       1.194594        32.5066 
  87   0.0000       1.219807        33.1926 
  88   0.0000       1.442532        39.2533 
  89   0.0000       1.454847        39.5884 
  90   0.0000       1.695719        46.1429 
  91   0.0000       1.715081        46.6697 
  92   0.0000       1.873618        50.9837 
  93   0.0000       1.880517        51.1715 
  94   0.0000       1.880714        51.1768 
  95   0.0000       1.898161        51.6516 
  96   0.0000       1.898459        51.6597 
  97   0.0000       1.922374        52.3105 
  98   0.0000       1.941646        52.8349 
  99   0.0000       1.955362        53.2081 
 100   0.0000       1.971096        53.6363 
 101   0.0000       1.996338        54.3231 
 102   0.0000       1.999516        54.4096 
 103   0.0000       2.032729        55.3134 
 104   0.0000       2.048235        55.7353 
 105   0.0000       2.050254        55.7902 
 106   0.0000       2.061645        56.1002 
 107   0.0000       2.065493        56.2049 
 108   0.0000       2.111675        57.4616 
 109   0.0000       2.121096        57.7180 
 110   0.0000       2.174783        59.1788 
 111   0.0000       2.196018        59.7567 
 112   0.0000       2.234867        60.8138 
 113   0.0000       2.250273        61.2330 
 114   0.0000       2.268929        61.7407 
 115   0.0000       2.283688        62.1423 
 116   0.0000       2.763691        75.2039 
 117   0.0000       2.780377        75.6579 
 118   0.0000       2.784376        75.7667 
 119   0.0000       2.801297        76.2272 
 120   0.0000       3.570081        97.1468 
 121   0.0000       3.584207        97.5312 
 122   0.0000       3.592899        97.7678 
 123   0.0000       3.607033        98.1524 
 124   0.0000       3.620008        98.5054 
 125   0.0000       3.623659        98.6048 
 126   0.0000       3.634952        98.9121 
 127   0.0000       3.639034        99.0232 
 128   0.0000       3.662436        99.6599 
 129   0.0000       3.678635       100.1008 
 130   0.0000       3.699860       100.6783 
 131   0.0000       3.701389       100.7199 
 132   0.0000       3.731221       101.5317 
 133   0.0000       3.731389       101.5362 
 134   0.0000       3.737754       101.7095 
 135   0.0000       3.747750       101.9815 
 136   0.0000       3.784978       102.9945 
 137   0.0000       3.804560       103.5273 
 138   0.0000       3.830882       104.2436 
 139   0.0000       3.847284       104.6899 
 140   0.0000       3.858777       105.0027 
 141   0.0000       3.861674       105.0815 
 142   0.0000       3.887551       105.7857 
 143   0.0000       3.888422       105.8093 
 144   0.0000       3.916036       106.5608 
 145   0.0000       3.926887       106.8560 
 146   0.0000       3.975201       108.1707 
 147   0.0000       3.993328       108.6640 
 148   0.0000       4.032450       109.7285 
 149   0.0000       4.049855       110.2022 
 150   0.0000       4.050750       110.2265 
 151   0.0000       4.067604       110.6851 
 152   0.0000       4.071461       110.7901 
 153   0.0000       4.124948       112.2455 
 154   0.0000       4.372420       118.9796 
 155   0.0000       4.410039       120.0033 
 156   0.0000       4.466545       121.5409 
 157   0.0000       4.479590       121.8958 
 158   0.0000       6.093913       165.8238 
 159   0.0000       6.105994       166.1525 
 160   0.0000       6.132159       166.8645 
 161   0.0000       6.145433       167.2257 
 162   0.0000       6.206562       168.8891 
 163   0.0000       6.208306       168.9366 
 164   0.0000       6.220451       169.2671 
 165   0.0000       6.220487       169.2681 
 166   0.0000       6.240190       169.8042 
 167   0.0000       6.253751       170.1732 
 168   0.0000       6.356455       172.9679 
 169   0.0000       6.375907       173.4972 
 170   0.0000       6.409272       174.4052 
 171   0.0000       6.425143       174.8370 
 172   0.0000       6.526516       177.5955 
 173   0.0000       6.529295       177.6711 
 174   0.0000       6.530820       177.7127 
 175   0.0000       6.540446       177.9746 
 176   0.0000       6.542470       178.0297 
 177   0.0000       6.551108       178.2647 
 178   0.0000       6.614408       179.9872 
 179   0.0000       6.629135       180.3879 
 180   0.0000       6.792153       184.8239 
 181   0.0000       6.804133       185.1499 
 182   0.0000       9.743689       265.1393 
 183   0.0000       9.778702       266.0920 

                    ********************************
                    * MULLIKEN POPULATION ANALYSIS *
                    ********************************

-----------------------
MULLIKEN ATOMIC CHARGES
-----------------------
   0 O :   -0.475190
   1 H :    0.223450
   2 H :    0.246089
   3 O :   -0.464058
   4 H :    0.234855
   5 H :    0.234855
Sum of atomic charges:   -0.0000000

--------------------------------
MULLIKEN REDUCED ORBITAL CHARGES
--------------------------------
  0 O s       :     4.000964  s :     4.000964
      pz      :     1.980734  p :     4.460391
      px      :     1.230400
      py      :     1.249257
      dz2     :     0.002879  d :     0.013066
      dxz     :     0.000245
      dyz     :     0.000075
      dx2y2   :     0.007711
      dxy     :     0.002156
      f0      :     0.000089  f :     0.000770
      f+1     :     0.000246
      f-1     :     0.000313
      f+2     :     0.000001
      f-2     :     0.000002
      f+3     :     0.000003
      f-3     :     0.000116
  1 H s       :     0.758009  s :     0.758009
      pz      :     0.008239  p :     0.015972
      px      :     0.002339
      py      :     0.005395
      dz2     :     0.000215  d :     0.002569
      dxz     :     0.001207
      dyz     :     0.000196
      dx2y2   :     0.000180
      dxy     :     0.000771
  2 H s       :     0.736988  s :     0.736988
      pz      :     0.007815  p :     0.014761
      px      :     0.004185
      py      :     0.002760
      dz2     :     0.000112  d :     0.002163
      dxz     :     0.000024
      dyz     :     0.001395
      dx2y2   :     0.000121
      dxy     :     0.000511
  3 O s       :     3.995944  s :     3.995944
      pz      :     1.234286  p :     4.454853
      px      :     1.511365
      py      :     1.709202
      dz2     :     0.000158  d :     0.012507
      dxz     :     0.006378
      dyz     :     0.003437
      dx2y2   :     0.000439
      dxy     :     0.002096
      f0      :     0.000039  f :     0.000754
      f+1     :     0.000168
      f-1     :     0.000106
      f+2     :     0.000018
      f-2     :     0.000280
      f+3     :     0.000051
      f-3     :     0.000092
  4 H s       :     0.745926  s :     0.745926
      pz      :     0.004729  p :     0.016522
      px      :     0.004719
      py      :     0.007074
      dz2     :     0.000950  d :     0.002698
      dxz     :     0.000371
      dyz     :     0.000766
      dx2y2   :     0.000502
      dxy     :     0.000109
  5 H s       :     0.745926  s :     0.745926
      pz      :     0.004729  p :     0.016522
      px      :     0.004719
      py      :     0.007074
      dz2     :     0.000950  d :     0.002698
      dxz     :     0.000371
      dyz     :     0.000766
      dx2y2   :     0.000502
      dxy     :     0.000109


                     *******************************
                     * LOEWDIN POPULATION ANALYSIS *
                     *******************************

----------------------
LOEWDIN ATOMIC CHARGES
----------------------
   0 O :   -0.148542
   1 H :    0.063519
   2 H :    0.081575
   3 O :   -0.146256
   4 H :    0.074852
   5 H :    0.074852

-------------------------------
LOEWDIN REDUCED ORBITAL CHARGES
-------------------------------
  0 O s       :     3.715749  s :     3.715749
      pz      :     1.889510  p :     4.374313
      px      :     1.239619
      py      :     1.245184
      dz2     :     0.012288  d :     0.052374
      dxz     :     0.000309
      dyz     :     0.000099
      dx2y2   :     0.027675
      dxy     :     0.012003
      f0      :     0.000085  f :     0.006105
      f+1     :     0.000901
      f-1     :     0.001098
      f+2     :     0.000002
      f-2     :     0.000009
      f+3     :     0.000854
      f-3     :     0.003157
  1 H s       :     0.696331  s :     0.696331
      pz      :     0.026967  p :     0.126957
      px      :     0.073267
      py      :     0.026723
      dz2     :     0.015750  d :     0.113192
      dxz     :     0.025035
      dyz     :     0.004092
      dx2y2   :     0.039167
      dxy     :     0.029148
  2 H s       :     0.680988  s :     0.680988
      pz      :     0.025842  p :     0.128017
      px      :     0.019961
      py      :     0.082215
      dz2     :     0.015320  d :     0.109420
      dxz     :     0.000501
      dyz     :     0.027548
      dx2y2   :     0.042769
      dxy     :     0.023282
  3 O s       :     3.712690  s :     3.712690
      pz      :     1.237843  p :     4.374908
      px      :     1.482705
      py      :     1.654361
      dz2     :     0.012433  d :     0.052521
      dxz     :     0.022588
      dyz     :     0.012948
      dx2y2   :     0.000743
      dxy     :     0.003810
      f0      :     0.000007  f :     0.006136
      f+1     :     0.002398
      f-1     :     0.001435
      f+2     :     0.000138
      f-2     :     0.001961
      f+3     :     0.000053
      f-3     :     0.000143
  4 H s       :     0.687161  s :     0.687161
      pz      :     0.055776  p :     0.125714
      px      :     0.037308
      py      :     0.032631
      dz2     :     0.023142  d :     0.112274
      dxz     :     0.037251
      dyz     :     0.029206
      dx2y2   :     0.010866
      dxy     :     0.011808
  5 H s       :     0.687161  s :     0.687161
      pz      :     0.055776  p :     0.125714
      px      :     0.037308
      py      :     0.032631
      dz2     :     0.023142  d :     0.112274
      dxz     :     0.037251
      dyz     :     0.029206
      dx2y2   :     0.010866
      dxy     :     0.011808


                      *****************************
                      * MAYER POPULATION ANALYSIS *
                      *****************************

  NA   - Mulliken gross atomic population
  ZA   - Total nuclear charge
  QA   - Mulliken gross atomic charge
  VA   - Mayer's total valence
  BVA  - Mayer's bonded valence
  FA   - Mayer's free valence

  ATOM       NA         ZA         QA         VA         BVA        FA
  0 O      8.4752     8.0000    -0.4752     1.8982     1.8982    -0.0000
  1 H      0.7766     1.0000     0.2234     0.9680     0.9680    -0.0000
  2 H      0.7539     1.0000     0.2461     0.9573     0.9573    -0.0000
  3 O      8.4641     8.0000    -0.4641     1.9128     1.9128    -0.0000
  4 H      0.7651     1.0000     0.2349     0.9641     0.9641    -0.0000
  5 H      0.7651     1.0000     0.2349     0.9641     0.9641    -0.0000

  Mayer bond orders larger than 0.100000
B(  0-O ,  1-H ) :   0.9573 B(  0-O ,  2-H ) :   0.9400 B(  3-O ,  4-H ) :   0.9535 
B(  3-O ,  5-H ) :   0.9535 

-------
TIMINGS
-------

Total SCF time: 0 days 0 hours 0 min 3 sec 

Total time                  ....       3.421 sec
Sum of individual times     ....       3.226 sec  ( 94.3%)

Fock matrix formation       ....       2.791 sec  ( 81.6%)
  Split-RI-J                ....       1.979 sec  ( 70.9% of F)
  XC integration            ....       0.740 sec  ( 26.5% of F)
    Basis function eval.    ....       0.078 sec  ( 10.6% of XC)
    Density eval.           ....       0.098 sec  ( 13.2% of XC)
    XC-Functional eval.     ....       0.051 sec  (  6.9% of XC)
    XC-Potential eval.      ....       0.198 sec  ( 26.8% of XC)
Diagonalization             ....       0.067 sec  (  2.0%)
Density matrix formation    ....       0.015 sec  (  0.4%)
Population analysis         ....       0.006 sec  (  0.2%)
Initial guess               ....       0.117 sec  (  3.4%)
Orbital Transformation      ....       0.000 sec  (  0.0%)
Orbital Orthonormalization  ....       0.000 sec  (  0.0%)
DIIS solution               ....       0.030 sec  (  0.9%)
SOSCF solution              ....       0.021 sec  (  0.6%)
Grid generation             ....       0.179 sec  (  5.2%)


-------------------------------------------------------------------------------
                          DFT DISPERSION CORRECTION                            
                                                                               
                              DFTD3 V3.1  Rev 1                                
                          USING Becke-Johnson damping                          
-------------------------------------------------------------------------------
The TPSS functional is recognized
Active option DFTDOPT                   ...         4   

molecular C6(AA) [au] = 341.285125 


            DFT-D V3
 parameters
 s6 scaling factor         :     1.0000 
 a1 scaling factor         :     0.4535 
 s8 scaling factor         :     1.9435 
 a2 scaling factor         :     4.4752 
 ad hoc parameters k1-k3   :    16.0000     1.3333    -4.0000 

 Edisp/kcal,au: -1.037905834494  -0.001654008054 
 E6   /kcal   :  -0.598812844 
 E8   /kcal   :  -0.439092990 
 % E8         :  42.305667420 

-------------------------   ----------------
Dispersion correction           -0.001654008
-------------------------   ----------------


-------------------------   --------------------
FINAL SINGLE POINT ENERGY      -152.351398206947
-------------------------   --------------------



           ************************************************************
           *        Program running with 24 parallel MPI-processes    *
           *              working on a common directory               *
           ************************************************************
------------------------------------------------------------------------------
                         ORCA SCF GRADIENT CALCULATION
------------------------------------------------------------------------------

Gradient of the Kohn-Sham DFT energy:
Kohn-Sham wavefunction type      ... RKS
Hartree-Fock exchange scaling    ...    0.000
Number of operators              ...    1
Number of atoms                  ...    6
Basis set dimensions             ...  184
Integral neglect threshold       ... 2.5e-11
Integral primitive cutoff        ... 2.5e-12

Nuclear repulsion gradient       ... done
One Electron Gradient            ... done
Pre-screening matrix             ... done
RI-J gradient                    ... done
Exchange-correlation gradient    ... done
Dispersion correction            ... done

------------------
CARTESIAN GRADIENT
------------------

   1   O   :    0.078221146    0.044254452    0.000000002
   2   H   :   -0.072936696    0.035311022   -0.000000000
   3   H   :   -0.005459807   -0.078612136   -0.000000001
   4   O   :   -0.071166070    0.054272322    0.000000005
   5   H   :    0.035738172   -0.027607136   -0.067026502
   6   H   :    0.035738164   -0.027607128    0.067026493

Difference to translation invariance:
           :    0.0001349080    0.0000113957   -0.0000000018

Norm of the cartesian gradient     ...    0.2047614451
RMS gradient                       ...    0.0482627355
MAX gradient                       ...    0.0786121356

-------
TIMINGS
-------

Total SCF gradient time            ...        0.566 sec

One electron gradient       ....       0.015 sec  (  2.6%)
Prescreening matrices       ....       0.019 sec  (  3.3%)
RI-J Coulomb gradient       ....       0.155 sec  ( 27.3%)
XC gradient                 ....       0.075 sec  ( 13.2%)
------------------------------------------------------------------------------
                         ORCA GEOMETRY RELAXATION STEP
------------------------------------------------------------------------------

Reading the OPT-File                    .... done
Getting information on internals        .... done
Copying old internal coords+grads       .... done
Making the new internal coordinates     .... (new redundants).... done
Validating the new internal coordinates .... (new redundants).... done
Calculating the B-matrix                .... done
Calculating the G,G- and P matrices     .... done
Transforming gradient to internals      .... done
Projecting the internal gradient        .... done
Number of atoms                         ....   6
Number of internal coordinates          ....  13
Current Energy                          ....  -152.351398207 Eh
Current gradient norm                   ....     0.204761445 Eh/bohr
Maximum allowed component of the step   ....  0.300
Current trust radius                    ....  0.300
Evaluating the initial hessian          ....  (Almloef) done
Projecting the Hessian                  .... done
Forming the augmented Hessian           .... done
Diagonalizing the augmented Hessian     .... done
Last element of RFO vector              ....  0.731934081
Lowest eigenvalues of augmented Hessian:
 -0.151022905  0.000023670  0.001500001  0.001721984  0.021989291
Length of the computed step             ....  0.930924609
Warning: the length of the step is outside the trust region - taking restricted step instead
The input lambda is                     ....    -0.151023
   iter:   1  x=   -0.228975  g=    9.962836 f(x)=     0.776621
   iter:   2  x=   -0.327600  g=    3.279359 f(x)=     0.323430
   iter:   3  x=   -0.429172  g=    1.217582 f(x)=     0.123672
   iter:   4  x=   -0.497032  g=    0.567842 f(x)=     0.038534
   iter:   5  x=   -0.516339  g=    0.373413 f(x)=     0.007210
   iter:   6  x=   -0.517481  g=    0.334759 f(x)=     0.000382
   iter:   7  x=   -0.517485  g=    0.332643 f(x)=     0.000001
   iter:   8  x=   -0.517485  g=    0.332637 f(x)=     0.000000
   iter:   9  x=   -0.517485  g=    0.332637 f(x)=     0.000000
The output lambda is                    ....    -0.517485 (9 iterations)
The final length of the internal step   ....  0.300000000
Converting the step to cartesian space:
 Initial RMS(Int)=    0.0832050294
Transforming coordinates:
 Iter   0:  RMS(Cart)=    0.0878782998 RMS(Int)=    0.0830280907
 Iter   1:  RMS(Cart)=    0.0008045872 RMS(Int)=    0.0006205012
 Iter   2:  RMS(Cart)=    0.0000282814 RMS(Int)=    0.0000339503
 Iter   3:  RMS(Cart)=    0.0000008635 RMS(Int)=    0.0000010323
 Iter   4:  RMS(Cart)=    0.0000000356 RMS(Int)=    0.0000000316
done
Storing new coordinates                 .... done

                                .--------------------.
          ----------------------|Geometry convergence|-------------------------
          Item                value                   Tolerance       Converged
          ---------------------------------------------------------------------
          RMS gradient        0.0450567352            0.0001000000      NO
          MAX gradient        0.0808525696            0.0003000000      NO
          RMS step            0.0832050294            0.0020000000      NO
          MAX step            0.1496308186            0.0040000000      NO
          ........................................................
          Max(Bonds)      0.0792      Max(Angles)    1.53
          Max(Dihed)        0.52      Max(Improp)    0.00
          ---------------------------------------------------------------------

The optimization has not yet converged - more geometry cycles are needed


    ---------------------------------------------------------------------------
                         Redundant Internal Coordinates
                            (Angstroem and degrees)

        Definition                    Value    dE/dq     Step     New-Value
    ----------------------------------------------------------------------------
     1. B(H   1,O   0)                1.8105  0.080853 -0.0792    1.7313   
     2. B(H   2,O   0)                1.8238  0.079593 -0.0781    1.7457   
     3. B(O   3,H   2)                3.6908  0.000966 -0.0010    3.6898   
     4. B(H   4,O   3)                1.8134  0.080632 -0.0790    1.7344   
     5. B(H   5,O   3)                1.8134  0.080632 -0.0790    1.7344   
     6. A(H   1,O   0,H   2)          104.67  0.017727   -1.53    103.14   
     7. A(O   0,H   2,O   3)          172.57 -0.000081    0.01    172.58   
     8. A(H   2,O   3,H   4)          111.75 -0.002675    0.21    111.96   
     9. A(H   4,O   3,H   5)          104.78  0.011337   -1.05    103.73   
    10. A(H   2,O   3,H   5)          111.75 -0.002675    0.21    111.96   
    11. D(O   3,H   2,O   0,H   1)    180.00  0.000000   -0.00    180.00   
    12. D(H   5,O   3,H   2,O   0)     58.53  0.005391   -0.52     58.01   
    13. D(H   4,O   3,H   2,O   0)    -58.53 -0.005391    0.52    -58.01   
    ----------------------------------------------------------------------------

         *************************************************************
         *                GEOMETRY OPTIMIZATION CYCLE   2            *
         *************************************************************
---------------------------------
CARTESIAN COORDINATES (ANGSTROEM)
---------------------------------
  O      0.116050    2.771062   -0.000000
  H     -1.504612    3.379966   -0.000000
  H     -0.110335    1.040067   -0.000000
  O     -0.112204   -2.649750    0.000000
  H      0.739644   -3.298874   -1.364239
  H      0.739644   -3.298875    1.364239

----------------------------
CARTESIAN COORDINATES (A.U.)
----------------------------
  NO LB      ZA    FRAG     MASS         X           Y           Z
   0 O     8.0000    0    15.999    0.219302    5.236548   -0.000000
   1 H     1.0000    0     1.008   -2.843306    6.387209   -0.000000
   2 H     1.0000    0     1.008   -0.208503    1.965443   -0.000000
   3 O     8.0000    0    15.999   -0.212034   -5.007301    0.000000
   4 H     1.0000    0     1.008    1.397725   -6.233969   -2.578038
   5 H     1.0000    0     1.008    1.397725   -6.233969    2.578038

--------------------------------
INTERNAL COORDINATES (ANGSTROEM)
--------------------------------
 O      0   0   0     0.000000000000     0.00000000     0.00000000
 H      1   0   0     1.731273944291     0.00000000     0.00000000
 H      1   2   0     1.745735489307   103.14082428     0.00000000
 O      3   1   2     3.689817427481   172.57799908   180.00000000
 H      4   3   1     1.734403449578   111.96346485   301.99109846
 H      4   3   1     1.734403460711   111.96346631    58.00890151

---------------------------
INTERNAL COORDINATES (A.U.)
---------------------------
 O      0   0   0     0.000000000000     0.00000000     0.00000000
 H      1   0   0     3.271633617504     0.00000000     0.00000000
 H      1   2   0     3.298961977057   103.14082428     0.00000000
 O      3   1   2     6.972744422109   172.57799908   180.00000000
 H      4   3   1     3.277547525431   111.96346485   301.99109846
 H      4   3   1     3.277547546470   111.96346631    58.00890151



           ************************************************************
           *        Program running with 24 parallel MPI-processes    *
           *              working on a common directory               *
           ************************************************************
 One Electron integrals                  ... done
 Pre-screening matrix                    ... done


           ************************************************************
           *        Program running with 24 parallel MPI-processes    *
           *              working on a common directory               *
           ************************************************************

Diagonalization of the overlap matrix:
Smallest eigenvalue                        ... 1.736e-03
Time for diagonalization                   ...    0.006 sec
Threshold for overlap eigenvalues          ... 1.000e-08
Number of eigenvalues below threshold      ... 0
Time for construction of square roots      ...    0.003 sec
Total time needed                          ...    0.009 sec

-------------------
DFT GRID GENERATION
-------------------

General Integration Accuracy     IntAcc      ...  4.670
Radial Grid Type                 RadialGrid  ... Gauss-Chebyshev
Angular Grid (max. acc.)         AngularGrid ... Lebedev-302
Angular grid pruning method      GridPruning ... 3 (G Style)
Weight generation scheme         WeightScheme... Becke
Basis function cutoff            BFCut       ...    1.0000e-11
Integration weight cutoff        WCut        ...    1.0000e-14
Grids for H and He will be reduced by one unit

# of grid points (after initial pruning)     ...  26000 (   0.0 sec)
# of grid points (after weights+screening)   ...  25728 (   0.0 sec)
nearest neighbour list constructed           ...    0.0 sec
Grid point re-assignment to atoms done       ...    0.0 sec
Grid point division into batches done        ...    0.1 sec
Reduced shell lists constructed in    0.1 sec

Total number of grid points                  ...    25728
Total number of batches                      ...      405
Average number of points per batch           ...       63
Average number of grid points per atom       ...     4288
Average number of shells per batch           ...    26.11 (40.80%)
Average number of basis functions per batch  ...    66.78 (36.29%)
Average number of large shells per batch     ...    19.11 (73.19%)
Average number of large basis fcns per batch ...    46.33 (69.38%)
Maximum spatial batch extension              ...  13.13, 14.34, 16.88 au
Average spatial batch extension              ...   0.31,  0.35,  0.36 au

Time for grid setup =    0.181 sec

--------------
SCF ITERATIONS
--------------
ITER       Energy         Delta-E        Max-DP      RMS-DP      [F,P]     Damp
               ***  Starting incremental Fock matrix formation  ***
  0   -152.3995677765   0.000000000000 0.00277594  0.00006349  0.0134938 0.7000
                      *** Initiating the SOSCF procedure ***
                      *** Re-Reading the Fockian *** 
                      *** Removing any level shift *** 
ITER      Energy       Delta-E        Grad      Rot      Max-DP    RMS-DP
  1   -152.39989956  -0.0003317798  0.002213  0.002213  0.004829  0.000139
               *** Restarting incremental Fock matrix formation ***
  2   -152.40000254  -0.0001029878  0.007129  0.045237  0.022101  0.000552
  3   -152.38514443   0.0148581123  0.044874  0.040853  0.019164  0.000478
  4   -152.40038972  -0.0152452911  0.000287  0.000826  0.000647  0.000010
  5   -152.40038966   0.0000000669  0.000331  0.001118  0.000485  0.000011
  6   -152.40038652   0.0000031367  0.000705  0.001005  0.000444  0.000011
  7   -152.40039036  -0.0000038376  0.000227  0.000976  0.000602  0.000009
  8   -152.40039038  -0.0000000274  0.000253  0.000538  0.000321  0.000005
  9   -152.40039100  -0.0000006149  0.000064  0.000084  0.000041  0.000001
 10   -152.40039103  -0.0000000335  0.000031  0.000026  0.000025  0.000000
                  ***Gradient check signals convergence***
              ***Rediagonalizing the Fockian in SOSCF/NRSCF***

               *****************************************************
               *                     SUCCESS                       *
               *           SCF CONVERGED AFTER  11 CYCLES          *
               *****************************************************

Total Energy       :         -152.40039105 Eh           -4147.02547 eV
  Last Energy change         ...   -1.3084e-08  Tolerance :   1.0000e-08
  Last MAX-Density change    ...    1.1586e-06  Tolerance :   1.0000e-07
             **** THE GBW FILE WAS UPDATED (02_H2O_2.gbw) ****
             **** DENSITY FILE WAS UPDATED (02_H2O_2.scfp) ****
             **** ENERGY FILE WAS UPDATED (02_H2O_2.en.tmp) ****
             **** THE GBW FILE WAS UPDATED (02_H2O_2.gbw) ****
             **** DENSITY FILE WAS UPDATED (02_H2O_2.scfp) ****
Total SCF time: 0 days 0 hours 0 min 2 sec 


-------------------------------------------------------------------------------
                          DFT DISPERSION CORRECTION                            
                                                                               
                              DFTD3 V3.1  Rev 1                                
                          USING Becke-Johnson damping                          
-------------------------------------------------------------------------------
-------------------------   ----------------
Dispersion correction           -0.001700046
-------------------------   ----------------


-------------------------   --------------------
FINAL SINGLE POINT ENERGY      -152.402091092229
-------------------------   --------------------



           ************************************************************
           *        Program running with 24 parallel MPI-processes    *
           *              working on a common directory               *
           ************************************************************
------------------------------------------------------------------------------
                         ORCA SCF GRADIENT CALCULATION
------------------------------------------------------------------------------

Gradient of the Kohn-Sham DFT energy:
Kohn-Sham wavefunction type      ... RKS
Hartree-Fock exchange scaling    ...    0.000
Number of operators              ...    1
Number of atoms                  ...    6
Basis set dimensions             ...  184
Integral neglect threshold       ... 2.5e-11
Integral primitive cutoff        ... 2.5e-12

Nuclear repulsion gradient       ... done
One Electron Gradient            ... done
Pre-screening matrix             ... done
RI-J gradient                    ... done
Exchange-correlation gradient    ... done
Dispersion correction            ... done

------------------
CARTESIAN GRADIENT
------------------

   1   O   :    0.085836822    0.050253116   -0.000000004
   2   H   :   -0.079985159    0.035755538    0.000000000
   3   H   :   -0.006038824   -0.085092193    0.000000002
   4   O   :   -0.078268326    0.059314191    0.000000005
   5   H   :    0.039287466   -0.030137796   -0.071958664
   6   H   :    0.039287467   -0.030137799    0.071958662

Difference to translation invariance:
           :    0.0001194466   -0.0000449423    0.0000000011

Norm of the cartesian gradient     ...    0.2230478755
RMS gradient                       ...    0.0525728884
MAX gradient                       ...    0.0858368223

-------
TIMINGS
-------

Total SCF gradient time            ...        0.481 sec

One electron gradient       ....       0.016 sec  (  3.4%)
Prescreening matrices       ....       0.017 sec  (  3.5%)
RI-J Coulomb gradient       ....       0.114 sec  ( 23.7%)
XC gradient                 ....       0.079 sec  ( 16.3%)
------------------------------------------------------------------------------
                         ORCA GEOMETRY RELAXATION STEP
------------------------------------------------------------------------------

Reading the OPT-File                    .... done
Getting information on internals        .... done
Copying old internal coords+grads       .... done
Making the new internal coordinates     .... (new redundants).... done
Validating the new internal coordinates .... (new redundants).... done
Calculating the B-matrix                .... done
Calculating the G,G- and P matrices     .... done
Transforming gradient to internals      .... done
Projecting the internal gradient        .... done
Number of atoms                         ....   6
Number of internal coordinates          ....  13
Current Energy                          ....  -152.402091092 Eh
Current gradient norm                   ....     0.223047875 Eh/bohr
Maximum allowed component of the step   ....  0.300
Current trust radius                    ....  0.300
Updating the Hessian (BFGS)             .... done
Forming the augmented Hessian           .... done
Diagonalizing the augmented Hessian     .... done
Last element of RFO vector              ....  0.662355988
Lowest eigenvalues of augmented Hessian:
 -0.198343400  0.000021288  0.001500001  0.001721984  0.021982562
Length of the computed step             ....  1.131097586
Warning: the length of the step is outside the trust region - taking restricted step instead
The input lambda is                     ....    -0.198343
   iter:   1  x=   -0.270389  g=   16.508736 f(x)=     1.189382
   iter:   2  x=   -0.366785  g=    5.252037 f(x)=     0.506275
   iter:   3  x=   -0.478989  g=    1.816721 f(x)=     0.203844
   iter:   4  x=   -0.575807  g=    0.743541 f(x)=     0.071988
   iter:   5  x=   -0.621093  g=    0.407253 f(x)=     0.018443
   iter:   6  x=   -0.627716  g=    0.318807 f(x)=     0.002112
   iter:   7  x=   -0.627832  g=    0.308091 f(x)=     0.000036
   iter:   8  x=   -0.627832  g=    0.307908 f(x)=     0.000000
   iter:   9  x=   -0.627832  g=    0.307908 f(x)=     0.000000
The output lambda is                    ....    -0.627832 (9 iterations)
The final length of the internal step   ....  0.300000000
Converting the step to cartesian space:
 Initial RMS(Int)=    0.0832050294
Transforming coordinates:
 Iter   0:  RMS(Cart)=    0.0872435469 RMS(Int)=    0.0830229737
 Iter   1:  RMS(Cart)=    0.0008554894 RMS(Int)=    0.0006644495
 Iter   2:  RMS(Cart)=    0.0000317765 RMS(Int)=    0.0000380949
 Iter   3:  RMS(Cart)=    0.0000010028 RMS(Int)=    0.0000012134
 Iter   4:  RMS(Cart)=    0.0000000428 RMS(Int)=    0.0000000387
done
Storing new coordinates                 .... done

                                .--------------------.
          ----------------------|Geometry convergence|-------------------------
          Item                value                   Tolerance       Converged
          ---------------------------------------------------------------------
          Energy change      -0.0506928853            0.0000050000      NO
          RMS gradient        0.0486463940            0.0001000000      NO
          MAX gradient        0.0874298697            0.0003000000      NO
          RMS step            0.0832050294            0.0020000000      NO
          MAX step            0.1497367779            0.0040000000      NO
          ........................................................
          Max(Bonds)      0.0792      Max(Angles)    1.58
          Max(Dihed)        0.51      Max(Improp)    0.00
          ---------------------------------------------------------------------

The optimization has not yet converged - more geometry cycles are needed


    ---------------------------------------------------------------------------
                         Redundant Internal Coordinates
                            (Angstroem and degrees)

        Definition                    Value    dE/dq     Step     New-Value
    ----------------------------------------------------------------------------
     1. B(H   1,O   0)                1.7313  0.087430 -0.0792    1.6520   
     2. B(H   2,O   0)                1.7457  0.086082 -0.0780    1.6677   
     3. B(O   3,H   2)                3.6898  0.000959 -0.0008    3.6890   
     4. B(H   4,O   3)                1.7344  0.087147 -0.0790    1.6555   
     5. B(H   5,O   3)                1.7344  0.087147 -0.0790    1.6555   
     6. A(H   1,O   0,H   2)          103.14  0.017594   -1.58    101.56   
     7. A(O   0,H   2,O   3)          172.58 -0.000111    0.01    172.59   
     8. A(H   2,O   3,H   4)          111.96 -0.002784    0.26    112.22   
     9. A(H   4,O   3,H   5)          103.73  0.011596   -1.08    102.66   
    10. A(H   2,O   3,H   5)          111.96 -0.002784    0.26    112.22   
    11. D(O   3,H   2,O   0,H   1)    180.00  0.000000   -0.00    180.00   
    12. D(H   5,O   3,H   2,O   0)     58.01  0.005489   -0.51     57.50   
    13. D(H   4,O   3,H   2,O   0)    -58.01 -0.005489    0.51    -57.50   
    ----------------------------------------------------------------------------

         *************************************************************
         *                GEOMETRY OPTIMIZATION CYCLE   3            *
         *************************************************************
---------------------------------
CARTESIAN COORDINATES (ANGSTROEM)
---------------------------------
  O      0.104559    2.723591    0.000000
  H     -1.458256    3.259160   -0.000000
  H     -0.109029    1.069621    0.000000
  O     -0.105708   -2.619393   -0.000000
  H      0.718310   -3.244691   -1.292487
  H      0.718310   -3.244691    1.292487

----------------------------
CARTESIAN COORDINATES (A.U.)
----------------------------
  NO LB      ZA    FRAG     MASS         X           Y           Z
   0 O     8.0000    0    15.999    0.197588    5.146840    0.000000
   1 H     1.0000    0     1.008   -2.755704    6.158919   -0.000000
   2 H     1.0000    0     1.008   -0.206035    2.021290    0.000000
   3 O     8.0000    0    15.999   -0.199759   -4.949935   -0.000000
   4 H     1.0000    0     1.008    1.357410   -6.131577   -2.442446
   5 H     1.0000    0     1.008    1.357410   -6.131577    2.442446

--------------------------------
INTERNAL COORDINATES (ANGSTROEM)
--------------------------------
 O      0   0   0     0.000000000000     0.00000000     0.00000000
 H      1   0   0     1.652036653994     0.00000000     0.00000000
 H      1   2   0     1.667704020857   101.55807693     0.00000000
 O      3   1   2     3.689015079515   172.59015850   180.00000000
 H      4   3   1     1.655452891254   112.22025056   302.50157485
 H      4   3   1     1.655452897347   112.22024930    57.49842475

---------------------------
INTERNAL COORDINATES (A.U.)
---------------------------
 O      0   0   0     0.000000000000     0.00000000     0.00000000
 H      1   0   0     3.121896839248     0.00000000     0.00000000
 H      1   2   0     3.151503871858   101.55807693     0.00000000
 O      3   1   2     6.971228204188   172.59015850   180.00000000
 H      4   3   1     3.128352592078   112.22025056   302.50157485
 H      4   3   1     3.128352603592   112.22024930    57.49842475



           ************************************************************
           *        Program running with 24 parallel MPI-processes    *
           *              working on a common directory               *
           ************************************************************
 One Electron integrals                  ... done
 Pre-screening matrix                    ... done


           ************************************************************
           *        Program running with 24 parallel MPI-processes    *
           *              working on a common directory               *
           ************************************************************

Diagonalization of the overlap matrix:
Smallest eigenvalue                        ... 1.454e-03
Time for diagonalization                   ...    0.006 sec
Threshold for overlap eigenvalues          ... 1.000e-08
Number of eigenvalues below threshold      ... 0
Time for construction of square roots      ...    0.003 sec
Total time needed                          ...    0.009 sec

-------------------
DFT GRID GENERATION
-------------------

General Integration Accuracy     IntAcc      ...  4.670
Radial Grid Type                 RadialGrid  ... Gauss-Chebyshev
Angular Grid (max. acc.)         AngularGrid ... Lebedev-302
Angular grid pruning method      GridPruning ... 3 (G Style)
Weight generation scheme         WeightScheme... Becke
Basis function cutoff            BFCut       ...    1.0000e-11
Integration weight cutoff        WCut        ...    1.0000e-14
Grids for H and He will be reduced by one unit

# of grid points (after initial pruning)     ...  26000 (   0.0 sec)
# of grid points (after weights+screening)   ...  25717 (   0.0 sec)
nearest neighbour list constructed           ...    0.0 sec
Grid point re-assignment to atoms done       ...    0.0 sec
Grid point division into batches done        ...    0.1 sec
Reduced shell lists constructed in    0.1 sec

Total number of grid points                  ...    25717
Total number of batches                      ...      405
Average number of points per batch           ...       63
Average number of grid points per atom       ...     4286
Average number of shells per batch           ...    26.50 (41.41%)
Average number of basis functions per batch  ...    67.83 (36.87%)
Average number of large shells per batch     ...    19.11 (72.12%)
Average number of large basis fcns per batch ...    46.22 (68.14%)
Maximum spatial batch extension              ...  13.02, 14.34, 16.88 au
Average spatial batch extension              ...   0.31,  0.37,  0.36 au

Time for grid setup =    0.175 sec

--------------
SCF ITERATIONS
--------------
ITER       Energy         Delta-E        Max-DP      RMS-DP      [F,P]     Damp
               ***  Starting incremental Fock matrix formation  ***
  0   -152.4539113124   0.000000000000 0.00274572  0.00006523  0.0141157 0.7000
                      *** Initiating the SOSCF procedure ***
                      *** Re-Reading the Fockian *** 
                      *** Removing any level shift *** 
ITER      Energy       Delta-E        Grad      Rot      Max-DP    RMS-DP
  1   -152.45429088  -0.0003795716  0.002052  0.002052  0.005094  0.000153
               *** Restarting incremental Fock matrix formation ***
  2   -152.45453298  -0.0002420942  0.006938  0.037406  0.019044  0.000483
  3   -152.44374791   0.0107850654  0.038169  0.033639  0.016272  0.000410
  4   -152.45490699  -0.0111590729  0.000311  0.000829  0.000548  0.000010
  5   -152.45490680   0.0000001827  0.000374  0.001042  0.000437  0.000011
  6   -152.45490446   0.0000023393  0.000626  0.000885  0.000381  0.000010
  7   -152.45490792  -0.0000034530  0.000167  0.000482  0.000363  0.000005
  8   -152.45490821  -0.0000002897  0.000125  0.000331  0.000198  0.000003
  9   -152.45490833  -0.0000001245  0.000049  0.000091  0.000082  0.000001
 10   -152.45490837  -0.0000000373  0.000025  0.000025  0.000015  0.000000
                 **** Energy Check signals convergence ****
              ***Rediagonalizing the Fockian in SOSCF/NRSCF***

               *****************************************************
               *                     SUCCESS                       *
               *           SCF CONVERGED AFTER  11 CYCLES          *
               *****************************************************

Total Energy       :         -152.45490838 Eh           -4148.50896 eV
  Last Energy change         ...   -9.2112e-09  Tolerance :   1.0000e-08
  Last MAX-Density change    ...    3.3847e-06  Tolerance :   1.0000e-07
             **** THE GBW FILE WAS UPDATED (02_H2O_2.gbw) ****
             **** DENSITY FILE WAS UPDATED (02_H2O_2.scfp) ****
             **** ENERGY FILE WAS UPDATED (02_H2O_2.en.tmp) ****
             **** THE GBW FILE WAS UPDATED (02_H2O_2.gbw) ****
             **** DENSITY FILE WAS UPDATED (02_H2O_2.scfp) ****
Total SCF time: 0 days 0 hours 0 min 2 sec 


-------------------------------------------------------------------------------
                          DFT DISPERSION CORRECTION                            
                                                                               
                              DFTD3 V3.1  Rev 1                                
                          USING Becke-Johnson damping                          
-------------------------------------------------------------------------------
-------------------------   ----------------
Dispersion correction           -0.001739476
-------------------------   ----------------


-------------------------   --------------------
FINAL SINGLE POINT ENERGY      -152.456647853043
-------------------------   --------------------



           ************************************************************
           *        Program running with 24 parallel MPI-processes    *
           *              working on a common directory               *
           ************************************************************
------------------------------------------------------------------------------
                         ORCA SCF GRADIENT CALCULATION
------------------------------------------------------------------------------

Gradient of the Kohn-Sham DFT energy:
Kohn-Sham wavefunction type      ... RKS
Hartree-Fock exchange scaling    ...    0.000
Number of operators              ...    1
Number of atoms                  ...    6
Basis set dimensions             ...  184
Integral neglect threshold       ... 2.5e-11
Integral primitive cutoff        ... 2.5e-12

Nuclear repulsion gradient       ... done
One Electron Gradient            ... done
Pre-screening matrix             ... done
RI-J gradient                    ... done
Exchange-correlation gradient    ... done
Dispersion correction            ... done

------------------
CARTESIAN GRADIENT
------------------

   1   O   :    0.093602936    0.056864587   -0.000000005
   2   H   :   -0.087129646    0.035530532   -0.000000001
   3   H   :   -0.006706709   -0.091502050    0.000000002
   4   O   :   -0.085599473    0.064530792    0.000000002
   5   H   :    0.042934639   -0.032773809   -0.076693424
   6   H   :    0.042934629   -0.032773802    0.076693412

Difference to translation invariance:
           :    0.0000363763   -0.0001237496   -0.0000000157

Norm of the cartesian gradient     ...    0.2415718402
RMS gradient                       ...    0.0569390288
MAX gradient                       ...    0.0936029364

-------
TIMINGS
-------

Total SCF gradient time            ...        0.482 sec

One electron gradient       ....       0.019 sec  (  3.9%)
Prescreening matrices       ....       0.020 sec  (  4.2%)
RI-J Coulomb gradient       ....       0.115 sec  ( 23.8%)
XC gradient                 ....       0.068 sec  ( 14.1%)
------------------------------------------------------------------------------
                         ORCA GEOMETRY RELAXATION STEP
------------------------------------------------------------------------------

Reading the OPT-File                    .... done
Getting information on internals        .... done
Copying old internal coords+grads       .... done
Making the new internal coordinates     .... (new redundants).... done
Validating the new internal coordinates .... (new redundants).... done
Calculating the B-matrix                .... done
Calculating the G,G- and P matrices     .... done
Transforming gradient to internals      .... done
Projecting the internal gradient        .... done
Number of atoms                         ....   6
Number of internal coordinates          ....  13
Current Energy                          ....  -152.456647853 Eh
Current gradient norm                   ....     0.241571840 Eh/bohr
Maximum allowed component of the step   ....  0.300
Current trust radius                    ....  0.300
Updating the Hessian (BFGS)             .... done
Forming the augmented Hessian           .... done
Diagonalizing the augmented Hessian     .... done
Last element of RFO vector              ....  0.665972735
Lowest eigenvalues of augmented Hessian:
 -0.210711564  0.000022259  0.001500001  0.001721984  0.021981713
Length of the computed step             ....  1.120130066
Warning: the length of the step is outside the trust region - taking restricted step instead
The input lambda is                     ....    -0.210712
   iter:   1  x=   -0.288642  g=   14.945324 f(x)=     1.164691
   iter:   2  x=   -0.392669  g=    4.761430 f(x)=     0.495319
   iter:   3  x=   -0.513144  g=    1.651936 f(x)=     0.199017
   iter:   4  x=   -0.615991  g=    0.679969 f(x)=     0.069933
   iter:   5  x=   -0.663088  g=    0.375717 f(x)=     0.017695
   iter:   6  x=   -0.669713  g=    0.296477 f(x)=     0.001964
   iter:   7  x=   -0.669821  g=    0.287177 f(x)=     0.000031
   iter:   8  x=   -0.669821  g=    0.287029 f(x)=     0.000000
   iter:   9  x=   -0.669821  g=    0.287029 f(x)=     0.000000
The output lambda is                    ....    -0.669821 (9 iterations)
The final length of the internal step   ....  0.300000000
Converting the step to cartesian space:
 Initial RMS(Int)=    0.0832050294
Transforming coordinates:
 Iter   0:  RMS(Cart)=    0.0855088652 RMS(Int)=    0.0830548482
 Iter   1:  RMS(Cart)=    0.0008045308 RMS(Int)=    0.0006066058
 Iter   2:  RMS(Cart)=    0.0000319049 RMS(Int)=    0.0000355830
 Iter   3:  RMS(Cart)=    0.0000010974 RMS(Int)=    0.0000012982
 Iter   4:  RMS(Cart)=    0.0000000468 RMS(Int)=    0.0000000478
done
Storing new coordinates                 .... done

                                .--------------------.
          ----------------------|Geometry convergence|-------------------------
          Item                value                   Tolerance       Converged
          ---------------------------------------------------------------------
          Energy change      -0.0545567608            0.0000050000      NO
          RMS gradient        0.0521837962            0.0001000000      NO
          MAX gradient        0.0939077189            0.0003000000      NO
          RMS step            0.0832050294            0.0020000000      NO
[...]
  Split-RI-J                ....       0.513 sec  ( 59.9% of F)
  XC integration            ....       0.266 sec  ( 31.0% of F)
    Basis function eval.    ....       0.021 sec  (  7.8% of XC)
    Density eval.           ....       0.033 sec  ( 12.4% of XC)
    XC-Functional eval.     ....       0.010 sec  (  3.8% of XC)
    XC-Potential eval.      ....       0.070 sec  ( 26.2% of XC)
Diagonalization             ....       0.005 sec  (  0.4%)
Density matrix formation    ....       0.005 sec  (  0.4%)
Population analysis         ....       0.005 sec  (  0.4%)
Initial guess               ....       0.012 sec  (  1.0%)
Orbital Transformation      ....       0.000 sec  (  0.0%)
Orbital Orthonormalization  ....       0.006 sec  (  0.5%)
DIIS solution               ....       0.001 sec  (  0.1%)
SOSCF solution              ....       0.010 sec  (  0.8%)
Grid generation             ....       0.154 sec  ( 12.7%)


-------------------------------------------------------------------------------
                          DFT DISPERSION CORRECTION                            
                                                                               
                              DFTD3 V3.1  Rev 1                                
                          USING Becke-Johnson damping                          
-------------------------------------------------------------------------------
The TPSS functional is recognized
Active option DFTDOPT                   ...         4   

molecular C6(AA) [au] = 178.136035 


            DFT-D V3
 parameters
 s6 scaling factor         :     1.0000 
 a1 scaling factor         :     0.4535 
 s8 scaling factor         :     1.9435 
 a2 scaling factor         :     4.4752 
 ad hoc parameters k1-k3   :    16.0000     1.3333    -4.0000 

 Edisp/kcal,au: -1.048168473719  -0.001670362608 
 E6   /kcal   :  -0.594317374 
 E8   /kcal   :  -0.453851100 
 % E8         :  43.299441975 

-------------------------   ----------------
Dispersion correction           -0.001670363
-------------------------   ----------------


-------------------------   --------------------
FINAL SINGLE POINT ENERGY      -152.942763273275
-------------------------   --------------------

                                *** OPTIMIZATION RUN DONE ***

                            ***************************************
                            *     ORCA property calculations      *
                            ***************************************

                                    ---------------------
                                    Active property flags
                                    ---------------------
   (+) Dipole Moment


------------------------------------------------------------------------------
                       ORCA ELECTRIC PROPERTIES CALCULATION
------------------------------------------------------------------------------

Dipole Moment Calculation                       ... on
Quadrupole Moment Calculation                   ... off
Polarizability Calculation                      ... off
GBWName                                         ... 02_H2O_2.gbw
Electron density file                           ... 02_H2O_2.scfp
The origin for moment calculation is the CENTER OF MASS  = (-0.041871, -0.341713  0.000247)

-------------
DIPOLE MOMENT
-------------
                                X             Y             Z
Electronic contribution:      0.01493      -0.00592       0.00085
Nuclear contribution   :      0.00113      -0.97170      -0.00079
                        -----------------------------------------
Total Dipole Moment    :      0.01606      -0.97762       0.00006
                        -----------------------------------------
Magnitude (a.u.)       :      0.97776
Magnitude (Debye)      :      2.48526



--------------------
Rotational spectrum 
--------------------
 
Rotational constants in cm-1:     6.889494     0.218180     0.217970 
Rotational constants in MHz : 206541.840706  6540.881324  6534.587013 

 Dipole components along the rotational axes: 
x,y,z [a.u.] :     0.977309     0.029452     0.002948 
x,y,z [Debye]:     2.484121     0.074861     0.007494 

 

----------------------------------------------------------------------------
                           ORCA NUMERICAL FREQUENCIES
                              (24-process run)
----------------------------------------------------------------------------

Number of atoms                ... 6
Central differences            ... used
Number of displacements        ... 36
Numerical increment            ... 5.000e-03 bohr
IR-spectrum generation         ... on
Raman-spectrum generation      ... off
Surface Crossing Hessian       ... off

 WARNING: There are more processes than displacements to do
  ====> : Reducing number of processes to  18

The output will be reduced. Please look at the following files:
SCF program output             ... >02_H2O_2.lastscf
Integral program output        ... >02_H2O_2.lastint
Gradient program output        ... >02_H2O_2.lastgrad
Dipole moment program output   ... >02_H2O_2.lastmom
AutoCI program output          ... >02_H2O_2.lastautoci


         <<< Energy and Gradient at the input geometry >>>

        <<< Energy and Gradient at displaced geometries >>>
             <<<Displacing   4/coordinate 1 (+)>>>
             <<<Displacing   6/coordinate 2 (+)>>>
             <<<Displacing   2/coordinate 2 (+)>>>
             <<<Displacing   1/coordinate 2 (+)>>>
             <<<Displacing   3/coordinate 1 (+)>>>
             <<<Displacing   3/coordinate 3 (+)>>>
             <<<Displacing   1/coordinate 3 (+)>>>
             <<<Displacing   2/coordinate 3 (+)>>>
             <<<Displacing   5/coordinate 1 (+)>>>
             <<<Displacing   5/coordinate 2 (+)>>>
             <<<Displacing   4/coordinate 3 (+)>>>
             <<<Displacing   1/coordinate 1 (+)>>>
             <<<Displacing   6/coordinate 1 (+)>>>
             <<<Displacing   4/coordinate 2 (+)>>>
             <<<Displacing   3/coordinate 2 (+)>>>
             <<<Displacing   6/coordinate 3 (+)>>>
             <<<Displacing   2/coordinate 1 (+)>>>
             <<<Displacing   5/coordinate 3 (+)>>>
             <<<Displacing   2/coordinate 3 (-)>>>
             <<<Displacing   1/coordinate 3 (-)>>>
             <<<Displacing   4/coordinate 3 (-)>>>
             <<<Displacing   3/coordinate 3 (-)>>>
             <<<Displacing   5/coordinate 1 (-)>>>
             <<<Displacing   6/coordinate 1 (-)>>>
             <<<Displacing   1/coordinate 2 (-)>>>
             <<<Displacing   4/coordinate 1 (-)>>>
             <<<Displacing   3/coordinate 1 (-)>>>
             <<<Displacing   2/coordinate 2 (-)>>>
             <<<Displacing   5/coordinate 3 (-)>>>
             <<<Displacing   1/coordinate 1 (-)>>>
             <<<Displacing   5/coordinate 2 (-)>>>
             <<<Displacing   6/coordinate 3 (-)>>>
             <<<Displacing   2/coordinate 1 (-)>>>
             <<<Displacing   6/coordinate 2 (-)>>>
             <<<Displacing   3/coordinate 2 (-)>>>
             <<<Displacing   4/coordinate 2 (-)>>>

-----------------------
VIBRATIONAL FREQUENCIES
-----------------------

Scaling factor for frequencies =  1.000000000 (already applied!)

   0:         0.00 cm**-1
   1:         0.00 cm**-1
   2:         0.00 cm**-1
   3:         0.00 cm**-1
   4:         0.00 cm**-1
   5:         0.00 cm**-1
   6:       141.79 cm**-1
   7:       174.85 cm**-1
   8:       175.37 cm**-1
   9:       205.12 cm**-1
  10:       392.61 cm**-1
  11:       654.72 cm**-1
  12:      1630.57 cm**-1
  13:      1651.18 cm**-1
  14:      3529.82 cm**-1
  15:      3694.58 cm**-1
  16:      3769.23 cm**-1
  17:      3793.28 cm**-1


------------
NORMAL MODES
------------

These modes are the cartesian displacements weighted by the diagonal matrix
M(i,i)=1/sqrt(m[i]) where m[i] is the mass of the displaced atom
Thus, these vectors are normalized but *not* orthogonal

                  0          1          2          3          4          5    
      0       0.000000   0.000000   0.000000   0.000000   0.000000   0.000000
      1       0.000000   0.000000   0.000000   0.000000   0.000000   0.000000
      2       0.000000   0.000000   0.000000   0.000000   0.000000   0.000000
      3       0.000000   0.000000   0.000000   0.000000   0.000000   0.000000
      4       0.000000   0.000000   0.000000   0.000000   0.000000   0.000000
      5       0.000000   0.000000   0.000000   0.000000   0.000000   0.000000
      6       0.000000   0.000000   0.000000   0.000000   0.000000   0.000000
      7       0.000000   0.000000   0.000000   0.000000   0.000000   0.000000
      8       0.000000   0.000000   0.000000   0.000000   0.000000   0.000000
      9       0.000000   0.000000   0.000000   0.000000   0.000000   0.000000
     10       0.000000   0.000000   0.000000   0.000000   0.000000   0.000000
     11       0.000000   0.000000   0.000000   0.000000   0.000000   0.000000
     12       0.000000   0.000000   0.000000   0.000000   0.000000   0.000000
     13       0.000000   0.000000   0.000000   0.000000   0.000000   0.000000
     14       0.000000   0.000000   0.000000   0.000000   0.000000   0.000000
     15       0.000000   0.000000   0.000000   0.000000   0.000000   0.000000
     16       0.000000   0.000000   0.000000   0.000000   0.000000   0.000000
     17       0.000000   0.000000   0.000000   0.000000   0.000000   0.000000
                  6          7          8          9         10         11    
      0       0.000188   0.001132  -0.000082  -0.012304   0.015217   0.000065
      1       0.000977   0.293871  -0.034909  -0.033716   0.029871   0.000025
      2       0.046825  -0.017032  -0.043980  -0.000937  -0.000034   0.028037
      3      -0.003611  -0.115020   0.017718  -0.192672  -0.237241   0.000202
      4      -0.002205   0.021012   0.005956  -0.461293  -0.561882   0.000693
      5      -0.814119   0.040559   0.090609   0.004158   0.002222   0.003281
      6       0.001374   0.268245  -0.038460   0.422381   0.542206  -0.003852
      7       0.001065   0.260717  -0.028545  -0.098875  -0.052773  -0.002447
      8       0.119014   0.135091   0.381286   0.007817  -0.003627  -0.915168
      9       0.000209   0.007152  -0.001546   0.033959  -0.056691   0.000212
     10      -0.000675  -0.246771   0.027175   0.123865  -0.036845   0.000088
     11       0.025342   0.009474   0.025347   0.000118   0.000326   0.037060
     12      -0.317407  -0.076374   0.196968  -0.282041   0.176232   0.009955
     13       0.097777  -0.292945   0.685754  -0.419586   0.360983   0.276295
     14      -0.223051  -0.027922  -0.090233  -0.004862   0.002593  -0.061071
     15       0.313346  -0.208327  -0.150393  -0.291382   0.177078  -0.010688
     16      -0.101429  -0.736354  -0.540399  -0.451088   0.364357  -0.276336
     17      -0.227277  -0.027766  -0.085934   0.005894  -0.005828  -0.060269
                 12         13         14         15         16         17    
      0      -0.013485   0.059210   0.017717  -0.002023  -0.052564   0.000016
      1      -0.007673   0.029727   0.054677  -0.002129   0.037296  -0.000002
      2       0.000066  -0.000302  -0.000214   0.000015   0.000114  -0.000012
      3       0.057854  -0.256506  -0.173182   0.028904   0.890970  -0.000252
      4       0.131314  -0.585258   0.111877  -0.015604  -0.405947   0.000125
      5      -0.000589   0.002542   0.000383  -0.000074  -0.002470   0.000079
      6       0.158329  -0.727234  -0.108112   0.001476  -0.057172   0.000005
      7      -0.018466   0.104204  -0.969166   0.050578  -0.182892  -0.000101
      8      -0.000340   0.002329   0.003035  -0.000176   0.000627  -0.000801
      9      -0.060274  -0.009350  -0.002657  -0.043014   0.000972  -0.000394
     10       0.035012   0.010219   0.001059   0.024098  -0.000659  -0.000167
     11       0.000371   0.000069   0.000016   0.000100  -0.000018  -0.070241
     12       0.480246   0.096857   0.020914   0.337081  -0.007437  -0.373902
     13      -0.272805  -0.076256  -0.013717  -0.192184   0.003734   0.211364
     14       0.411622   0.092019  -0.031225  -0.586470   0.013604   0.561777
     15       0.474274   0.095506   0.021352   0.347361  -0.007485   0.380161
     16      -0.273967  -0.076726  -0.013635  -0.191477   0.003602  -0.208708
     17      -0.417629  -0.093189   0.030949   0.584887  -0.013286   0.553998


-----------
IR SPECTRUM  
-----------

 Mode    freq (cm**-1)   T**2         TX         TY         TZ
-------------------------------------------------------------------
   6:       141.79  151.081784  ( -0.074496  -0.047315 -12.291216)
   7:       174.85   12.027790  ( -1.000974  -3.234540   0.750728)
   8:       175.37   11.580986  (  0.301729   1.063164   3.218638)
   9:       205.12  262.312675  ( -3.376732 -15.839581   0.134280)
  10:       392.61   39.378944  (  6.224395   0.796157  -0.044528)
  11:       654.72   78.039417  ( -0.001863  -0.005212  -8.833990)
  12:      1630.57   81.608239  (  8.392123  -3.343278  -0.054778)
  13:      1651.18   30.384543  ( -4.260910  -3.496980   0.017932)
  14:      3529.82  385.473209  (  1.543617 -19.572659   0.038514)
  15:      3694.58    5.671591  (  2.185429  -0.946300   0.002818)
  16:      3769.23   57.468113  (  2.901349  -7.003588   0.006098)
  17:      3793.28   63.638692  (  0.047495   0.014667   7.977231)

The first frequency considered to be a vibration is 6
The total number of vibrations considered is 12


--------------------------
THERMOCHEMISTRY AT 298.15K
--------------------------

Temperature         ... 298.15 K
Pressure            ... 1.00 atm
Total Mass          ... 36.03 AMU

Throughout the following assumptions are being made:
  (1) The electronic state is orbitally nondegenerate
  (2) There are no thermally accessible electronically excited states
  (3) Hindered rotations indicated by low frequency modes are not
      treated as such but are treated as vibrations and this may
      cause some error
  (4) All equations used are the standard statistical mechanics
      equations for an ideal gas
  (5) All vibrations are strictly harmonic

freq.     141.79  E(vib)   ...       0.41 
freq.     174.85  E(vib)   ...       0.38 
freq.     175.37  E(vib)   ...       0.38 
freq.     205.12  E(vib)   ...       0.35 
freq.     392.61  E(vib)   ...       0.20 
freq.     654.72  E(vib)   ...       0.08 
freq.    1630.57  E(vib)   ...       0.00 
freq.    1651.18  E(vib)   ...       0.00 
freq.    3529.82  E(vib)   ...       0.00 
freq.    3694.58  E(vib)   ...       0.00 
freq.    3769.23  E(vib)   ...       0.00 
freq.    3793.28  E(vib)   ...       0.00 

------------
INNER ENERGY
------------

The inner energy is: U= E(el) + E(ZPE) + E(vib) + E(rot) + E(trans)
    E(el)   - is the total energy from the electronic structure calculation
              = E(kin-el) + E(nuc-el) + E(el-el) + E(nuc-nuc)
    E(ZPE)  - the the zero temperature vibrational energy from the frequency calculation
    E(vib)  - the the finite temperature correction to E(ZPE) due to population
              of excited vibrational states
    E(rot)  - is the rotational thermal energy
    E(trans)- is the translational thermal energy

Summary of contributions to the inner energy U:
Electronic energy                ...   -152.94276327 Eh
Zero point energy                ...      0.04513759 Eh      28.32 kcal/mol
Thermal vibrational correction   ...      0.00286646 Eh       1.80 kcal/mol
Thermal rotational correction    ...      0.00141627 Eh       0.89 kcal/mol
Thermal translational correction ...      0.00141627 Eh       0.89 kcal/mol
-----------------------------------------------------------------------
Total thermal energy                   -152.89192668 Eh


Summary of corrections to the electronic energy:
(perhaps to be used in another calculation)
Total thermal correction                  0.00569901 Eh       3.58 kcal/mol
Non-thermal (ZPE) correction              0.04513759 Eh      28.32 kcal/mol
-----------------------------------------------------------------------
Total correction                          0.05083659 Eh      31.90 kcal/mol


--------
ENTHALPY
--------

The enthalpy is H = U + kB*T
                kB is Boltzmann's constant
Total free energy                 ...   -152.89192668 Eh 
Thermal Enthalpy correction       ...      0.00094421 Eh       0.59 kcal/mol
-----------------------------------------------------------------------
Total Enthalpy                    ...   -152.89098247 Eh


Note: Only C1 symmetry has been detected, increase convergence thresholds 
      if your molecule has a higher symmetry. Symmetry factor of 1.0 is   
      used for the rotational entropy correction. 
 

Note: Rotational entropy computed according to Herzberg 
Infrared and Raman Spectra, Chapter V,1, Van Nostrand Reinhold, 1945 
Point Group:  C1, Symmetry Number:   1  
Rotational constants in cm-1:     6.889494     0.218180     0.217970 

Vibrational entropy computed according to the QRRHO of S. Grimme
Chem.Eur.J. 2012 18 9955


-------
ENTROPY
-------

The entropy contributions are T*S = T*(S(el)+S(vib)+S(rot)+S(trans))
     S(el)   - electronic entropy
     S(vib)  - vibrational entropy
     S(rot)  - rotational entropy
     S(trans)- translational entropy
The entropies will be listed as mutliplied by the temperature to get
units of energy

Electronic entropy                ...      0.00000000 Eh      0.00 kcal/mol
Vibrational entropy               ...      0.00519314 Eh      3.26 kcal/mol
Rotational entropy                ...      0.01003758 Eh      6.30 kcal/mol
Translational entropy             ...      0.01742549 Eh     10.93 kcal/mol
-----------------------------------------------------------------------
Final entropy term                ...      0.03265622 Eh     20.49 kcal/mol

In case the symmetry of your molecule has not been determined correctly
or in case you have a reason to use a different symmetry number we print 
out the resulting rotational entropy values for sn=1,12 :
 --------------------------------------------------------
|  sn= 1 | S(rot)=       0.01003758 Eh      6.30 kcal/mol|
|  sn= 2 | S(rot)=       0.00938313 Eh      5.89 kcal/mol|
|  sn= 3 | S(rot)=       0.00900030 Eh      5.65 kcal/mol|
|  sn= 4 | S(rot)=       0.00872867 Eh      5.48 kcal/mol|
|  sn= 5 | S(rot)=       0.00851798 Eh      5.35 kcal/mol|
|  sn= 6 | S(rot)=       0.00834584 Eh      5.24 kcal/mol|
|  sn= 7 | S(rot)=       0.00820029 Eh      5.15 kcal/mol|
|  sn= 8 | S(rot)=       0.00807421 Eh      5.07 kcal/mol|
|  sn= 9 | S(rot)=       0.00796301 Eh      5.00 kcal/mol|
|  sn=10 | S(rot)=       0.00786353 Eh      4.93 kcal/mol|
|  sn=11 | S(rot)=       0.00777354 Eh      4.88 kcal/mol|
|  sn=12 | S(rot)=       0.00769138 Eh      4.83 kcal/mol|
 --------------------------------------------------------


-------------------
GIBBS FREE ENERGY
-------------------

The Gibbs free energy is G = H - T*S

Total enthalpy                    ...   -152.89098247 Eh 
Total entropy correction          ...     -0.03265622 Eh    -20.49 kcal/mol
-----------------------------------------------------------------------
Final Gibbs free energy         ...   -152.92363869 Eh

For completeness - the Gibbs free energy minus the electronic energy
G-E(el)                           ...      0.01912459 Eh     12.00 kcal/mol


Total Time for Numerical Frequencies  :        31.074 sec

Timings for individual modules:

Sum of individual times         ...      188.443 sec (=   3.141 min)
GTO integral calculation        ...       31.389 sec (=   0.523 min)  16.7 %
SCF iterations                  ...      108.327 sec (=   1.805 min)  57.5 %
SCF Gradient evaluation         ...       46.646 sec (=   0.777 min)  24.8 %
Geometry relaxation             ...        2.082 sec (=   0.035 min)   1.1 %
                             ****ORCA TERMINATED NORMALLY****
TOTAL RUN TIME: 0 days 0 hours 3 minutes 41 seconds 675 msec
