
                                 *****************
                                 * O   R   C   A *
                                 *****************

           --- An Ab Initio, DFT and Semiempirical electronic structure package ---

                  #######################################################
                  #                        -***-                        #
                  #          Department of theory and spectroscopy      #
                  #               Directorship: Frank Neese             #
                  #        Max Planck Institute fuer Kohlenforschung    #
                  #                Kaiser Wilhelm Platz 1               #
                  #                 D-45470 Muelheim/Ruhr               #
                  #                      Germany                        #
                  #                                                     #
                  #                  All rights reserved                #
                  #                        -***-                        #
                  #######################################################


                         Program Version 4.2.0 -  RELEASE  -


 With contributions from (in alphabetic order):
   Daniel Aravena         : Magnetic Suceptibility
   Michael Atanasov       : Ab Initio Ligand Field Theory (pilot matlab implementation)
   Alexander A. Auer      : GIAO ZORA, VPT2
   Ute Becker             : Parallelization
   Giovanni Bistoni       : ED, misc. LED, open-shell LED, HFLED
   Martin Brehm           : Molecular dynamics
   Dmytro Bykov           : SCF Hessian
   Vijay G. Chilkuri      : MRCI spin determinant printing, contributions to CSF-ICE
   Dipayan Datta          : RHF DLPNO-CCSD density
   Achintya Kumar Dutta   : EOM-CC, STEOM-CC
   Dmitry Ganyushin       : Spin-Orbit,Spin-Spin,Magnetic field MRCI
   Miquel Garcia          : C-PCM Hessian, Gaussian charge scheme
   Yang Guo               : DLPNO-NEVPT2, CIM, IAO-localization
   Andreas Hansen         : Spin unrestricted coupled pair/coupled cluster methods
   Benjamin Helmich-Paris : CASSCF linear response (MC-RPA)
   Lee Huntington         : MR-EOM, pCC
   Robert Izsak           : Overlap fitted RIJCOSX, COSX-SCS-MP3, EOM
   Christian Kollmar      : KDIIS, OOCD, Brueckner-CCSD(T), CCSD density
   Simone Kossmann        : Meta GGA functionals, TD-DFT gradient, OOMP2, MP2 Hessian
   Martin Krupicka        : AUTO-CI
   Lucas Lang             : DCDCAS
   Dagmar Lenk            : GEPOL surface, SMD
   Dimitrios Liakos       : Extrapolation schemes; Compound Job, initial MDCI parallelization
   Dimitrios Manganas     : Further ROCIS development; embedding schemes
   Dimitrios Pantazis     : SARC Basis sets
   Taras Petrenko         : DFT Hessian,TD-DFT gradient, ASA, ECA, R-Raman, ABS, FL, XAS/XES, NRVS
   Peter Pinski           : DLPNO-MP2, DLPNO-MP2 Gradient
   Christoph Reimann      : Effective Core Potentials
   Marius Retegan         : Local ZFS, SOC
   Christoph Riplinger    : Optimizer, TS searches, QM/MM, DLPNO-CCSD(T), (RO)-DLPNO pert. Triples
   Tobias Risthaus        : Range-separated hybrids, TD-DFT gradient, RPA, STAB
   Michael Roemelt        : Original ROCIS implementation
   Masaaki Saitow         : Open-shell DLPNO-CCSD energy and density
   Barbara Sandhoefer     : DKH picture change effects
   Avijit Sen             : IP-ROCIS
   Kantharuban Sivalingam : CASSCF convergence, NEVPT2, FIC-MRCI
   Bernardo de Souza      : ESD, SOC TD-DFT
   Georgi Stoychev        : AutoAux, RI-MP2 NMR
   Willem Van den Heuvel  : Paramagnetic NMR
   Boris Wezisla          : Elementary symmetry handling
   Frank Wennmohs         : Technical directorship


 We gratefully acknowledge several colleagues who have allowed us to
 interface, adapt or use parts of their codes:
   Stefan Grimme, W. Hujo, H. Kruse,             : VdW corrections, initial TS optimization,
                  C. Bannwarth                     DFT functionals, gCP, sTDA/sTD-DF
   Ed Valeev, F. Pavosevic, A. Kumar             : LibInt (2-el integral package), F12 methods
   Garnet Chan, S. Sharma, J. Yang, R. Olivares  : DMRG
   Ulf Ekstrom                                   : XCFun DFT Library
   Mihaly Kallay                                 : mrcc  (arbitrary order and MRCC methods)
   Andreas Klamt, Michael Diedenhofen            : otool_cosmo (COSMO solvation model)
   Jiri Pittner, Ondrej Demel                    : Mk-CCSD
   Frank Weinhold                                : gennbo (NPA and NBO analysis)
   Christopher J. Cramer and Donald G. Truhlar   : smd solvation model
   Lars Goerigk                                  : TD-DFT with DH, B97 family of functionals
   V. Asgeirsson, H. Jonsson                     : NEB implementation
   FAccTs GmbH                                   : IRC, NEB, NEB-TS, Multilevel, MM, QM/MM, CI optimization
   S Lehtola, MJT Oliveira, MAL Marques          : LibXC Library


 Your calculation uses the libint2 library for the computation of 2-el integrals
 For citations please refer to: http://libint.valeyev.net

 Your ORCA version has been built with support for libXC version: 4.2.3
 For citations please refer to: https://tddft.org/programs/libxc/

 This ORCA versions uses:
   CBLAS   interface :  Fast vector & matrix operations
   LAPACKE interface :  Fast linear algebra routines
   SCALAPACK package :  Parallel linear algebra routines


Your calculation utilizes the atom-pairwise dispersion correction
with the Becke-Johnson damping scheme (D3BJ)
Cite in your paper:
S.Grimme, S.Ehrlich, L.Goerigk, J Comput Chem, (2011), 32, 1456–1465 
S.Grimme, J.Antony, S.Ehrlich and H.Krieg, J.Chem.Phys., 132, (2010), 154104 
   

----- Orbital basis set information -----
Your calculation utilizes the basis: aug-cc-pV(T+d)Z 
             Al - Ar: T.H. Dunning, Jr., K. A. Peterson and A. K. Wilson, J. Chem. Phys.
                      114, 9244 (2001)

----- AuxJ basis set information -----
Your calculation utilizes the auxiliary basis: def2/J
   F. Weigend, Phys. Chem. Chem. Phys. 8, 1057 (2006).

================================================================================
                                        WARNINGS
                       Please study these warnings very carefully!
================================================================================


WARNING: Geometry Optimization
  ===> : Switching off AutoStart
         For restart on a previous wavefunction, please use MOREAD

INFO   : the flag for use of LIBINT has been found!

================================================================================
                                       INPUT FILE
================================================================================
NAME = 03_H2O_3.in
|  1> #
|  2> # 03_H2O_3 tpss/aug-cc-pvt(+d)z
|  3> #
|  4> ! tpss d3bj aug-cc-pvt(+d)z def2/j grid4 nofinalgrid opt xyzfile numfreq
|  5> 
|  6> *xyz 0 1
|  7> O	-1.476811	-0.647642	-0.082126
|  8> H	-0.613415	-1.087457	-0.037065
|  9> H	-2.026236	-1.086841	0.568502
| 10> O	1.305672	-0.945117	-0.091536
| 11> H	1.973931	-1.196903	0.547209
| 12> H	1.22684	0.019839	-0.021857
| 13> O	0.169678	1.599733	0.108456
| 14> H	-0.629586	1.051269	0.060063
| 15> H	0.080159	2.244313	-0.595195
| 16> *
| 17> 
| 18> %maxcore 5000
| 19> 
| 20> %pal
| 21> nprocs 24
| 22> end
| 23> 
| 24> 
| 25>                          ****END OF INPUT****
================================================================================

                       *****************************
                       * Geometry Optimization Run *
                       *****************************

Geometry optimization settings:
Update method            Update   .... BFGS
Choice of coordinates    CoordSys .... Z-matrix Internals
Initial Hessian          InHess   .... Almoef's Model

Convergence Tolerances:
Energy Change            TolE     ....  5.0000e-06 Eh
Max. Gradient            TolMAXG  ....  3.0000e-04 Eh/bohr
RMS Gradient             TolRMSG  ....  1.0000e-04 Eh/bohr
Max. Displacement        TolMAXD  ....  4.0000e-03 bohr
RMS Displacement         TolRMSD  ....  2.0000e-03 bohr
Strict Convergence                ....  False
------------------------------------------------------------------------------
                        ORCA OPTIMIZATION COORDINATE SETUP
------------------------------------------------------------------------------

The optimization will be done in new redundant internal coordinates
Making redundant internal coordinates   ...  (new redundants) done
Evaluating the initial hessian          ...  (Almloef) done
Evaluating the coordinates              ...  done
Calculating the B-matrix                .... done
Calculating the G-matrix                .... done
Diagonalizing the G-matrix              .... done
The first mode is                       ....   69
The number of degrees of freedom        ....   21

    -----------------------------------------------------------------
                    Redundant Internal Coordinates


    -----------------------------------------------------------------
         Definition                    Initial Value    Approx d2E/dq
    -----------------------------------------------------------------
      1. B(H   1,O   0)                  0.9700         0.501182   
      2. B(H   2,O   0)                  0.9582         0.523473   
      3. B(O   3,H   1)                  1.9251         0.015003   
      4. B(H   4,O   3)                  0.9581         0.523592   
      5. B(H   5,H   1)                  2.1478         0.001415   
      6. B(H   5,O   3)                  0.9707         0.499960   
      7. B(O   6,H   5)                  1.9054         0.016129   
      8. B(H   7,O   0)                  1.9038         0.016228   
      9. B(H   7,H   5)                  2.1253         0.001537   
     10. B(H   7,O   6)                  0.9706         0.500180   
     11. B(H   7,H   1)                  2.1410         0.001451   
     12. B(H   8,O   6)                  0.9584         0.522930   
     13. A(H   1,O   0,H   2)          105.7245         0.320256   
     14. A(H   1,O   0,H   7)           90.2888         0.194349   
     15. A(H   2,O   0,H   7)          127.8445         0.195392   
     16. A(O   0,H   1,O   3)          148.4799         0.192494   
     17. A(O   3,H   1,H   5)           26.8674         0.111178   
     18. A(O   0,H   1,H   7)           62.7710         0.138348   
     19. A(O   3,H   1,H   7)           86.2705         0.111303   
     20. A(H   5,H   1,H   7)           59.4119         0.099575   
     21. A(O   0,H   1,H   5)          121.9527         0.138071   
     22. A(H   1,O   3,H   4)          131.0713         0.193524   
     23. A(H   1,O   3,H   5)           89.4564         0.192437   
     24. A(H   4,O   3,H   5)          105.6664         0.320141   
     25. A(H   1,H   5,O   3)           63.6762         0.138044   
     26. A(H   1,H   5,H   7)           60.1355         0.099714   
     27. A(O   3,H   5,H   7)          123.7906         0.138969   
     28. A(H   1,H   5,O   6)           87.2821         0.111545   
     29. A(O   6,H   5,H   7)           27.1690         0.111970   
     30. A(O   3,H   5,O   6)          150.9551         0.194146   
     31. A(H   7,O   6,H   8)          105.4575         0.320097   
     32. A(H   5,O   6,H   8)          124.0032         0.195220   
     33. A(H   5,O   6,H   7)           89.1365         0.194156   
     34. A(H   1,H   7,H   5)           60.4525         0.099774   
     35. A(O   0,H   7,H   5)           87.2922         0.112001   
     36. A(O   0,H   7,O   6)          150.9865         0.194302   
     37. A(H   5,H   7,O   6)           63.6945         0.138974   
     38. A(O   0,H   7,H   1)           26.9402         0.111703   
     39. A(H   1,H   7,O   6)          124.0937         0.138326   
     40. D(O   3,H   1,O   0,H   7)    -11.7716         0.380639   
     41. D(H   7,H   1,O   0,H   2)   -129.7025         0.380639   
     42. D(H   5,H   1,O   0,H   7)     -5.4848         0.380639   
     43. D(H   5,H   1,O   0,H   2)   -135.1873         0.380639   
     44. D(O   3,H   1,O   0,H   2)   -141.4741         0.380639   
     45. D(H   5,O   3,H   1,O   0)     11.8642         0.001643   
     46. D(H   4,O   3,H   1,O   0)    122.3477         0.001643   
     47. D(H   4,O   3,H   1,H   5)    110.4835         0.001643   
     48. D(H   5,O   3,H   1,H   7)      1.3903         0.001643   
     49. D(H   4,O   3,H   1,H   7)    111.8738         0.001643   
     50. D(O   6,H   5,H   1,H   7)      1.1646         0.001523   
     51. D(O   6,H   5,H   1,O   0)      6.8305         0.001523   
     52. D(O   3,H   5,H   1,H   7)   -178.3883         0.001523   
     53. D(O   6,H   5,H   1,O   3)    179.5529         0.001523   
     54. D(O   6,H   5,O   3,H   1)     -0.9199         0.378251   
     55. D(H   7,H   5,O   3,H   4)   -134.5033         0.378251   
     56. D(O   6,H   5,O   3,H   4)   -133.7414         0.378251   
     57. D(H   1,H   5,O   3,H   4)   -132.8215         0.378251   
     58. D(O   3,H   5,H   1,O   0)   -172.7224         0.001523   
     59. D(H   7,H   5,O   3,H   1)     -1.6818         0.378251   
     60. D(H   7,H   5,H   1,O   3)    178.3883         0.001523   
     61. D(H   7,H   5,H   1,O   0)      5.6659         0.001523   
     62. D(H   8,O   6,H   5,H   7)   -108.1417         0.001665   
     63. D(H   8,O   6,H   5,H   1)   -110.3539         0.001665   
     64. D(H   7,O   6,H   5,H   1)     -2.2122         0.001665   
     65. D(H   8,O   6,H   5,O   3)   -109.5285         0.001665   
     66. D(H   7,O   6,H   5,O   3)     -1.3868         0.001665   
     67. D(H   5,H   7,O   0,H   1)      4.7063         0.001667   
     68. D(H   1,H   7,O   0,H   2)    110.3109         0.001667   
     69. D(O   6,H   7,O   0,H   2)    114.8337         0.001667   
     70. D(O   6,H   7,O   0,H   1)      4.5228         0.001667   
     71. D(H   5,H   7,O   6,H   8)    125.1784         0.378680   
     72. D(H   1,H   7,O   6,H   5)      2.6771         0.378680   
     73. D(H   1,H   7,O   6,H   8)    127.8555         0.378680   
     74. D(O   0,H   7,O   6,H   5)      0.2045         0.378680   
     75. D(H   1,H   7,H   5,O   6)   -177.4517         0.001528   
     76. D(H   1,H   7,H   5,O   3)      1.7382         0.001528   
     77. D(O   0,H   7,H   5,O   6)   -179.9007         0.001528   
     78. D(O   0,H   7,H   5,H   1)     -2.4490         0.001528   
     79. D(O   0,H   7,H   5,O   3)     -0.7108         0.001528   
     80. D(O   6,H   7,H   5,H   1)    177.4517         0.001528   
     81. D(O   6,H   7,H   5,O   3)    179.1899         0.001528   
     82. D(H   5,H   7,H   1,O   3)     -0.7298         0.001525   
     83. D(H   5,H   7,H   1,O   0)   -174.5942         0.001525   
     84. D(O   0,H   7,H   1,H   5)    174.5942         0.001525   
     85. D(O   0,H   7,O   6,H   8)    125.3829         0.378680   
     86. D(O   0,H   7,H   1,O   3)    173.8644         0.001525   
     87. D(O   6,H   7,H   1,H   5)     -2.7587         0.001525   
     88. D(O   6,H   7,H   1,O   3)     -3.4885         0.001525   
     89. D(O   6,H   7,H   1,O   0)   -177.3529         0.001525   
     90. D(H   5,H   7,O   0,H   2)    115.0172         0.001667   
    -----------------------------------------------------------------

Number of atoms                         .... 9
Number of degrees of freedom            .... 90

         *************************************************************
         *                GEOMETRY OPTIMIZATION CYCLE   1            *
         *************************************************************
---------------------------------
CARTESIAN COORDINATES (ANGSTROEM)
---------------------------------
  O     -1.476811   -0.647642   -0.082126
  H     -0.613415   -1.087457   -0.037065
  H     -2.026236   -1.086841    0.568502
  O      1.305672   -0.945117   -0.091536
  H      1.973931   -1.196903    0.547209
  H      1.226840    0.019839   -0.021857
  O      0.169678    1.599733    0.108456
  H     -0.629586    1.051269    0.060063
  H      0.080159    2.244313   -0.595195

----------------------------
CARTESIAN COORDINATES (A.U.)
----------------------------
  NO LB      ZA    FRAG     MASS         X           Y           Z
   0 O     8.0000    0    15.999   -2.790768   -1.223866   -0.155196
   1 H     1.0000    0     1.008   -1.159186   -2.054996   -0.070043
   2 H     1.0000    0     1.008   -3.829031   -2.053832    1.074313
   3 O     8.0000    0    15.999    2.467363   -1.786012   -0.172978
   4 H     1.0000    0     1.008    3.730189   -2.261819    1.034075
   5 H     1.0000    0     1.008    2.318392    0.037490   -0.041304
   6 O     8.0000    0    15.999    0.320645    3.023057    0.204952
   7 H     1.0000    0     1.008   -1.189745    1.986611    0.113503
   8 H     1.0000    0     1.008    0.151479    4.241137   -1.124756

--------------------------------
INTERNAL COORDINATES (ANGSTROEM)
--------------------------------
 O      0   0   0     0.000000000000     0.00000000     0.00000000
 H      1   0   0     0.970010505491     0.00000000     0.00000000
 H      1   2   0     0.958165114482   105.72451778     0.00000000
 O      2   1   3     1.925129262935   148.47990843   218.52590542
 H      4   2   1     0.958103050774   131.07133552   122.34770223
 H      4   2   1     0.970674883368    89.45639618    11.86423463
 O      6   4   2     1.905423318701   150.95508604   359.08013207
 H      7   6   4     0.970555296437    89.13650572   358.61319453
 H      7   6   4     0.958447576846   124.00318504   250.47153616

---------------------------
INTERNAL COORDINATES (A.U.)
---------------------------
 O      0   0   0     0.000000000000     0.00000000     0.00000000
 H      1   0   0     1.833054202404     0.00000000     0.00000000
 H      1   2   0     1.810669657448   105.72451778     0.00000000
 O      2   1   3     3.637967079345   148.47990843   218.52590542
 H      4   2   1     1.810552374037   131.07133552   122.34770223
 H      4   2   1     1.834309694641    89.45639618    11.86423463
 O      6   4   2     3.600728241532   150.95508604   359.08013207
 H      7   6   4     1.834083708092    89.13650572   358.61319453
 H      7   6   4     1.811203433959   124.00318504   250.47153616

---------------------
BASIS SET INFORMATION
---------------------
There are 2 groups of distinct atoms

 Group   1 Type O   : 19s6p3d2f contracted to 5s4p3d2f pattern {88111/3111/111/11}
 Group   2 Type H   : 6s3p2d contracted to 4s3p2d pattern {3111/111/11}

Atom   0O    basis set group =>   1
Atom   1H    basis set group =>   2
Atom   2H    basis set group =>   2
Atom   3O    basis set group =>   1
Atom   4H    basis set group =>   2
Atom   5H    basis set group =>   2
Atom   6O    basis set group =>   1
Atom   7H    basis set group =>   2
Atom   8H    basis set group =>   2
---------------------------------
AUXILIARY/J BASIS SET INFORMATION
---------------------------------
There are 2 groups of distinct atoms

 Group   1 Type O   : 12s5p4d2f1g contracted to 6s4p3d1f1g pattern {711111/2111/211/2/1}
 Group   2 Type H   : 5s2p1d contracted to 3s1p1d pattern {311/2/1}

Atom   0O    basis set group =>   1
Atom   1H    basis set group =>   2
Atom   2H    basis set group =>   2
Atom   3O    basis set group =>   1
Atom   4H    basis set group =>   2
Atom   5H    basis set group =>   2
Atom   6O    basis set group =>   1
Atom   7H    basis set group =>   2
Atom   8H    basis set group =>   2


           ************************************************************
           *        Program running with 24 parallel MPI-processes    *
           *              working on a common directory               *
           ************************************************************
------------------------------------------------------------------------------
                           ORCA GTO INTEGRAL CALCULATION
                           -- RI-GTO INTEGRALS CHOSEN --
------------------------------------------------------------------------------

                         BASIS SET STATISTICS AND STARTUP INFO

Gaussian basis set:
 # of primitive gaussian shells          ...  156
 # of primitive gaussian functions       ...  348
 # of contracted shells                  ...   96
 # of contracted basis functions         ...  276
 Highest angular momentum                ...    3
 Maximum contraction depth               ...    8
Auxiliary gaussian basis set:
 # of primitive gaussian shells          ...  120
 # of primitive gaussian functions       ...  306
 # of contracted shells                  ...   75
 # of contracted aux-basis functions     ...  213
 Highest angular momentum                ...    4
 Maximum contraction depth               ...    7
Ratio of auxiliary to basis functions    ...  0.77
Integral package used                  ... LIBINT
 One Electron integrals                  ... done
 Ordering auxiliary basis shells         ... done
 Integral threshhold             Thresh  ...  2.500e-11
 Primitive cut-off               TCut    ...  2.500e-12
 Pre-screening matrix                    ... done
 Shell pair data                         ... 
 Ordering of the shell pairs             ... done (   0.001 sec) 4594 of 4656 pairs
 Determination of significant pairs      ... done (   0.000 sec)
 Creation of shell pair data             ... done (   0.001 sec)
 Storage of shell pair data              ... done (   0.006 sec)
 Shell pair data done in (   0.007 sec)
 Computing two index integrals           ... done
 Cholesky decomposition of the V-matrix  ... done


Timings:
 Total evaluation time                   ...   0.240 sec (  0.004 min)
 One electron matrix time                ...   0.020 sec (  0.000 min) =  8.3%
 Schwartz matrix evaluation time         ...   0.118 sec (  0.002 min) = 49.1%
 Two index repulsion integral time       ...   0.001 sec (  0.000 min) =  0.4%
 Cholesky decomposition of V             ...   0.067 sec (  0.001 min) = 27.9%
 Three index repulsion integral time     ...   0.000 sec (  0.000 min) =  0.0%



           ************************************************************
           *        Program running with 24 parallel MPI-processes    *
           *              working on a common directory               *
           ************************************************************
-------------------------------------------------------------------------------
                                 ORCA SCF
-------------------------------------------------------------------------------

------------
SCF SETTINGS
------------
Hamiltonian:
 Density Functional     Method          .... DFT(GTOs)
 Exchange Functional    Exchange        .... TPSS
 Correlation Functional Correlation     .... TPSS
 LDA part of GGA corr.  LDAOpt          .... PW91-LDA
 Gradients option       PostSCFGGA      .... off
   Density functional embedding theory  .... OFF
   NL short-range parameter             ....  5.000000
 RI-approximation to the Coulomb term is turned on
   Number of auxiliary basis functions  .... 213


General Settings:
 Integral files         IntName         .... 03_H2O_3
 Hartree-Fock type      HFTyp           .... RHF
 Total Charge           Charge          ....    0
 Multiplicity           Mult            ....    1
 Number of Electrons    NEL             ....   30
 Basis Dimension        Dim             ....  276
 Nuclear Repulsion      ENuc            ....     84.5280316478 Eh

Convergence Acceleration:
 DIIS                   CNVDIIS         .... on
   Start iteration      DIISMaxIt       ....    12
   Startup error        DIISStart       ....  0.200000
   # of expansion vecs  DIISMaxEq       ....     5
   Bias factor          DIISBfac        ....   1.050
   Max. coefficient     DIISMaxC        ....  10.000
 Newton-Raphson         CNVNR           .... off
 SOSCF                  CNVSOSCF        .... on
   Start iteration      SOSCFMaxIt      ....   150
   Startup grad/error   SOSCFStart      ....  0.003300
 Level Shifting         CNVShift        .... on
   Level shift para.    LevelShift      ....    0.2500
   Turn off err/grad.   ShiftErr        ....    0.0010
 Zerner damping         CNVZerner       .... off
 Static damping         CNVDamp         .... on
   Fraction old density DampFac         ....    0.7000
   Max. Damping (<1)    DampMax         ....    0.9800
   Min. Damping (>=0)   DampMin         ....    0.0000
   Turn off err/grad.   DampErr         ....    0.1000
 Fernandez-Rico         CNVRico         .... off

SCF Procedure:
 Maximum # iterations   MaxIter         ....   125
 SCF integral mode      SCFMode         .... Direct
   Integral package                     .... LIBINT
 Reset frequency        DirectResetFreq ....    20
 Integral Threshold     Thresh          ....  2.500e-11 Eh
 Primitive CutOff       TCut            ....  2.500e-12 Eh

Convergence Tolerance:
 Convergence Check Mode ConvCheckMode   .... Total+1el-Energy
 Convergence forced     ConvForced      .... 0
 Energy Change          TolE            ....  1.000e-08 Eh
 1-El. energy change                    ....  1.000e-05 Eh
 Orbital Gradient       TolG            ....  1.000e-05
 Orbital Rotation angle TolX            ....  1.000e-05
 DIIS Error             TolErr          ....  5.000e-07


Diagonalization of the overlap matrix:
Smallest eigenvalue                        ... 1.498e-04
Time for diagonalization                   ...    0.031 sec
Threshold for overlap eigenvalues          ... 1.000e-08
Number of eigenvalues below threshold      ... 0
Time for construction of square roots      ...    0.009 sec
Total time needed                          ...    0.040 sec

-------------------
DFT GRID GENERATION
-------------------

General Integration Accuracy     IntAcc      ...  4.670
Radial Grid Type                 RadialGrid  ... Gauss-Chebyshev
Angular Grid (max. acc.)         AngularGrid ... Lebedev-302
Angular grid pruning method      GridPruning ... 3 (G Style)
Weight generation scheme         WeightScheme... Becke
Basis function cutoff            BFCut       ...    1.0000e-11
Integration weight cutoff        WCut        ...    1.0000e-14
Grids for H and He will be reduced by one unit

# of grid points (after initial pruning)     ...  39000 (   0.0 sec)
# of grid points (after weights+screening)   ...  37273 (   0.0 sec)
nearest neighbour list constructed           ...    0.0 sec
Grid point re-assignment to atoms done       ...    0.0 sec
Grid point division into batches done        ...    0.1 sec
Reduced shell lists constructed in    0.1 sec

Total number of grid points                  ...    37273
Total number of batches                      ...      587
Average number of points per batch           ...       63
Average number of grid points per atom       ...     4141
Average number of shells per batch           ...    67.88 (70.71%)
Average number of basis functions per batch  ...   188.81 (68.41%)
Average number of large shells per batch     ...    56.00 (82.49%)
Average number of large basis fcns per batch ...   152.69 (80.87%)
Maximum spatial batch extension              ...   9.52, 16.88, 10.93 au
Average spatial batch extension              ...   0.14,  0.16,  0.15 au

Time for grid setup =    0.171 sec

------------------------------
INITIAL GUESS: MODEL POTENTIAL
------------------------------
Loading Hartree-Fock densities                     ... done
Calculating cut-offs                               ... done
Setting up the integral package                    ... done
Initializing the effective Hamiltonian             ... done
Starting the Coulomb interaction                   ... done (   0.0 sec)
Reading the grid                                   ... done
Mapping shells                                     ... done
Starting the XC term evaluation                    ... done (   0.0 sec)
  promolecular density results
     # of electrons  =     29.996930767
     EX              =    -26.217277172
     EC              =     -0.966352353
     EX+EC           =    -27.183629524
Transforming the Hamiltonian                       ... done (   0.0 sec)
Diagonalizing the Hamiltonian                      ... done (   0.0 sec)
Back transforming the eigenvectors                 ... done (   0.0 sec)
Now organizing SCF variables                       ... done
                      ------------------
                      INITIAL GUESS DONE (   0.3 sec)
                      ------------------
--------------
SCF ITERATIONS
--------------
ITER       Energy         Delta-E        Max-DP      RMS-DP      [F,P]     Damp
               ***  Starting incremental Fock matrix formation  ***
  0   -229.1847888979   0.000000000000 0.07690240  0.00131087  0.3193292 0.7000
  1   -229.3088803040  -0.124091406133 0.03728666  0.00072134  0.1095837 0.7000
                               ***Turning on DIIS***
  2   -229.3420963812  -0.033216077188 0.04977826  0.00082631  0.0254070 0.0000
  3   -229.4117662829  -0.069669901675 0.01412856  0.00033199  0.0646079 0.0000
  4   -229.4224655164  -0.010699233463 0.00340582  0.00008341  0.0119902 0.0000
                      *** Initiating the SOSCF procedure ***
                           *** Shutting down DIIS ***
                      *** Re-Reading the Fockian *** 
                      *** Removing any level shift *** 
ITER      Energy       Delta-E        Grad      Rot      Max-DP    RMS-DP
  5   -229.42301221  -0.0005466951  0.000668  0.000668  0.001986  0.000043
               *** Restarting incremental Fock matrix formation ***
  6   -229.42304605  -0.0000338349  0.000374  0.001228  0.002740  0.000048
  7   -229.42304452   0.0000015222  0.000374  0.000229  0.000992  0.000015
  8   -229.42305178  -0.0000072562  0.000045  0.000181  0.000571  0.000010
  9   -229.42305191  -0.0000001344  0.000029  0.000035  0.000070  0.000001
 10   -229.42305195  -0.0000000350  0.000028  0.000046  0.000169  0.000003
 11   -229.42305198  -0.0000000300  0.000005  0.000016  0.000050  0.000001
                  ***Gradient check signals convergence***
              ***Rediagonalizing the Fockian in SOSCF/NRSCF***

               *****************************************************
               *                     SUCCESS                       *
               *           SCF CONVERGED AFTER  12 CYCLES          *
               *****************************************************


----------------
TOTAL SCF ENERGY
----------------

Total Energy       :         -229.42305198 Eh           -6242.91863 eV

Components:
Nuclear Repulsion  :           84.52803165 Eh            2300.12468 eV
Electronic Energy  :         -313.95108363 Eh           -8543.04331 eV
One Electron Energy:         -483.03866609 Eh          -13144.15034 eV
Two Electron Energy:          169.08758246 Eh            4601.10703 eV

Virial components:
Potential Energy   :         -457.78091445 Eh          -12456.85198 eV
Kinetic Energy     :          228.35786246 Eh            6213.93335 eV
Virial Ratio       :            2.00466456


DFT components:
N(Alpha)           :       14.999963963131 electrons
N(Beta)            :       14.999963963131 electrons
N(Total)           :       29.999927926262 electrons
E(X)               :      -27.037716189748 Eh       
E(C)               :       -0.993197374015 Eh       
E(XC)              :      -28.030913563763 Eh       
DFET-embed. en.    :        0.000000000000 Eh       

---------------
SCF CONVERGENCE
---------------

  Last Energy change         ...   -3.5368e-09  Tolerance :   1.0000e-08
  Last MAX-Density change    ...    3.0006e-06  Tolerance :   1.0000e-07
  Last RMS-Density change    ...    9.0086e-08  Tolerance :   5.0000e-09
  Last Orbital Gradient      ...    2.2887e-06  Tolerance :   1.0000e-05
  Last Orbital Rotation      ...    1.9789e-06  Tolerance :   1.0000e-05

             **** THE GBW FILE WAS UPDATED (03_H2O_3.gbw) ****
             **** DENSITY FILE WAS UPDATED (03_H2O_3.scfp) ****
             **** ENERGY FILE WAS UPDATED (03_H2O_3.en.tmp) ****
             **** THE GBW FILE WAS UPDATED (03_H2O_3.gbw) ****
             **** DENSITY FILE WAS UPDATED (03_H2O_3.scfp) ****
----------------
ORBITAL ENERGIES
----------------

  NO   OCC          E(Eh)            E(eV) 
   0   2.0000     -18.888703      -513.9877 
   1   2.0000     -18.887262      -513.9485 
   2   2.0000     -18.886332      -513.9232 
   3   2.0000      -0.959755       -26.1163 
   4   2.0000      -0.945070       -25.7167 
   5   2.0000      -0.943574       -25.6759 
   6   2.0000      -0.507402       -13.8071 
   7   2.0000      -0.480374       -13.0716 
   8   2.0000      -0.478684       -13.0257 
   9   2.0000      -0.362268        -9.8578 
  10   2.0000      -0.357887        -9.7386 
  11   2.0000      -0.330216        -8.9856 
  12   2.0000      -0.278707        -7.5840 
  13   2.0000      -0.271219        -7.3802 
  14   2.0000      -0.265993        -7.2380 
  15   0.0000      -0.031602        -0.8599 
  16   0.0000      -0.002992        -0.0814 
  17   0.0000      -0.001979        -0.0539 
  18   0.0000       0.033200         0.9034 
  19   0.0000       0.042008         1.1431 
  20   0.0000       0.049452         1.3457 
  21   0.0000       0.066759         1.8166 
  22   0.0000       0.077125         2.0987 
  23   0.0000       0.087071         2.3693 
  24   0.0000       0.091885         2.5003 
  25   0.0000       0.100805         2.7430 
  26   0.0000       0.107835         2.9343 
  27   0.0000       0.134490         3.6597 
  28   0.0000       0.142811         3.8861 
  29   0.0000       0.145460         3.9582 
  30   0.0000       0.148299         4.0354 
  31   0.0000       0.152052         4.1375 
  32   0.0000       0.161843         4.4040 
  33   0.0000       0.169685         4.6174 
  34   0.0000       0.176796         4.8109 
  35   0.0000       0.179092         4.8733 
  36   0.0000       0.197919         5.3856 
  37   0.0000       0.223289         6.0760 
  38   0.0000       0.224866         6.1189 
  39   0.0000       0.256663         6.9842 
  40   0.0000       0.267066         7.2672 
  41   0.0000       0.276140         7.5142 
  42   0.0000       0.290337         7.9005 
  43   0.0000       0.296837         8.0774 
  44   0.0000       0.312267         8.4972 
  45   0.0000       0.315833         8.5942 
  46   0.0000       0.322874         8.7859 
  47   0.0000       0.330944         9.0055 
  48   0.0000       0.340554         9.2669 
  49   0.0000       0.343382         9.3439 
  50   0.0000       0.349711         9.5161 
  51   0.0000       0.358001         9.7417 
  52   0.0000       0.372264        10.1298 
  53   0.0000       0.386960        10.5297 
  54   0.0000       0.430405        11.7119 
  55   0.0000       0.442601        12.0438 
  56   0.0000       0.446326        12.1451 
  57   0.0000       0.463180        12.6038 
  58   0.0000       0.510764        13.8986 
  59   0.0000       0.514694        14.0055 
  60   0.0000       0.531340        14.4585 
  61   0.0000       0.562928        15.3181 
  62   0.0000       0.581649        15.8275 
  63   0.0000       0.592554        16.1242 
  64   0.0000       0.613065        16.6823 
  65   0.0000       0.619892        16.8681 
  66   0.0000       0.628717        17.1083 
  67   0.0000       0.640784        17.4366 
  68   0.0000       0.652212        17.7476 
  69   0.0000       0.678638        18.4667 
  70   0.0000       0.685888        18.6640 
  71   0.0000       0.691483        18.8162 
  72   0.0000       0.709375        19.3031 
  73   0.0000       0.734244        19.9798 
  74   0.0000       0.768623        20.9153 
  75   0.0000       0.773269        21.0417 
  76   0.0000       0.774125        21.0650 
  77   0.0000       0.785121        21.3642 
  78   0.0000       0.794607        21.6224 
  79   0.0000       0.807549        21.9745 
  80   0.0000       0.814893        22.1744 
  81   0.0000       0.823426        22.4066 
  82   0.0000       0.833431        22.6788 
  83   0.0000       0.843223        22.9453 
  84   0.0000       0.856417        23.3043 
  85   0.0000       0.870312        23.6824 
  86   0.0000       0.878752        23.9121 
  87   0.0000       0.883325        24.0365 
  88   0.0000       0.890678        24.2366 
  89   0.0000       0.893823        24.3222 
  90   0.0000       0.930561        25.3218 
  91   0.0000       0.963865        26.2281 
  92   0.0000       0.983855        26.7721 
  93   0.0000       0.985191        26.8084 
  94   0.0000       1.002310        27.2742 
  95   0.0000       1.019418        27.7398 
  96   0.0000       1.023517        27.8513 
  97   0.0000       1.035048        28.1651 
  98   0.0000       1.047082        28.4925 
  99   0.0000       1.065096        28.9827 
 100   0.0000       1.083515        29.4839 
 101   0.0000       1.126726        30.6598 
 102   0.0000       1.128089        30.6969 
 103   0.0000       1.158450        31.5230 
 104   0.0000       1.164512        31.6880 
 105   0.0000       1.171352        31.8741 
 106   0.0000       1.185123        32.2488 
 107   0.0000       1.205849        32.8128 
 108   0.0000       1.211271        32.9604 
 109   0.0000       1.245839        33.9010 
 110   0.0000       1.256290        34.1854 
 111   0.0000       1.288855        35.0715 
 112   0.0000       1.309651        35.6374 
 113   0.0000       1.346652        36.6443 
 114   0.0000       1.354543        36.8590 
 115   0.0000       1.377962        37.4963 
 116   0.0000       1.397117        38.0175 
 117   0.0000       1.410391        38.3787 
 118   0.0000       1.453295        39.5462 
 119   0.0000       1.462378        39.7933 
 120   0.0000       1.487792        40.4849 
 121   0.0000       1.527154        41.5560 
 122   0.0000       1.540720        41.9251 
 123   0.0000       1.563602        42.5478 
 124   0.0000       1.591566        43.3087 
 125   0.0000       1.621629        44.1268 
 126   0.0000       1.641075        44.6559 
 127   0.0000       1.700002        46.2594 
 128   0.0000       1.722675        46.8764 
 129   0.0000       1.730827        47.0982 
 130   0.0000       1.764080        48.0030 
 131   0.0000       1.801529        49.0221 
 132   0.0000       1.836656        49.9780 
 133   0.0000       1.841305        50.1045 
 134   0.0000       1.865691        50.7680 
 135   0.0000       1.988380        54.1066 
 136   0.0000       2.056704        55.9658 
 137   0.0000       2.081493        56.6403 
 138   0.0000       2.100760        57.1646 
 139   0.0000       2.109344        57.3982 
 140   0.0000       2.133581        58.0577 
 141   0.0000       2.139593        58.2213 
 142   0.0000       2.154482        58.6264 
 143   0.0000       2.185940        59.4825 
 144   0.0000       2.195954        59.7549 
 145   0.0000       2.200695        59.8840 
 146   0.0000       2.216367        60.3104 
 147   0.0000       2.229645        60.6717 
 148   0.0000       2.243974        61.0616 
 149   0.0000       2.252950        61.3059 
 150   0.0000       2.286569        62.2207 
 151   0.0000       2.290683        62.3326 
 152   0.0000       2.327562        63.3362 
 153   0.0000       2.347308        63.8735 
 154   0.0000       2.398319        65.2616 
 155   0.0000       2.416908        65.7674 
 156   0.0000       2.492897        67.8352 
 157   0.0000       2.499983        68.0280 
 158   0.0000       2.513274        68.3897 
 159   0.0000       2.529546        68.8324 
 160   0.0000       2.536910        69.0328 
 161   0.0000       2.567627        69.8687 
 162   0.0000       2.584361        70.3240 
 163   0.0000       2.617260        71.2193 
 164   0.0000       2.633751        71.6680 
 165   0.0000       2.641212        71.8710 
 166   0.0000       2.647235        72.0349 
 167   0.0000       2.674114        72.7663 
 168   0.0000       2.719543        74.0025 
 169   0.0000       2.768130        75.3247 
 170   0.0000       2.775136        75.5153 
 171   0.0000       2.785577        75.7994 
 172   0.0000       2.909087        79.1603 
 173   0.0000       2.934202        79.8437 
 174   0.0000       3.531097        96.0860 
 175   0.0000       3.545533        96.4789 
 176   0.0000       3.579273        97.3970 
 177   0.0000       3.717026       101.1454 
 178   0.0000       3.728782       101.4653 
 179   0.0000       3.747798       101.9828 
 180   0.0000       3.810945       103.7011 
 181   0.0000       3.817776       103.8870 
 182   0.0000       3.855474       104.9128 
 183   0.0000       3.923485       106.7635 
 184   0.0000       3.955954       107.6470 
 185   0.0000       3.968109       107.9777 
 186   0.0000       3.979243       108.2807 
 187   0.0000       3.989475       108.5591 
 188   0.0000       4.021452       109.4293 
 189   0.0000       4.027683       109.5988 
 190   0.0000       4.047949       110.1503 
 191   0.0000       4.076143       110.9175 
 192   0.0000       4.138426       112.6123 
 193   0.0000       4.163182       113.2859 
 194   0.0000       4.188595       113.9775 
 195   0.0000       4.205722       114.4435 
 196   0.0000       4.217903       114.7750 
 197   0.0000       4.244637       115.5025 
 198   0.0000       4.261048       115.9490 
 199   0.0000       4.265134       116.0602 
 200   0.0000       4.306652       117.1899 
 201   0.0000       4.354866       118.5019 
 202   0.0000       4.378601       119.1478 
 203   0.0000       4.384730       119.3146 
 204   0.0000       4.397167       119.6530 
 205   0.0000       4.440337       120.8277 
 206   0.0000       4.454963       121.2257 
 207   0.0000       4.536710       123.4502 
 208   0.0000       4.549770       123.8055 
 209   0.0000       4.572833       124.4331 
 210   0.0000       4.649116       126.5089 
 211   0.0000       4.695030       127.7583 
 212   0.0000       4.708101       128.1139 
 213   0.0000       4.853461       132.0694 
 214   0.0000       4.875816       132.6777 
 215   0.0000       4.879617       132.7811 
 216   0.0000       4.912535       133.6769 
 217   0.0000       4.946462       134.6001 
 218   0.0000       4.952091       134.7532 
 219   0.0000       4.994700       135.9127 
 220   0.0000       5.019936       136.5994 
 221   0.0000       5.034889       137.0063 
 222   0.0000       5.035653       137.0271 
 223   0.0000       5.137678       139.8033 
 224   0.0000       5.145427       140.0142 
 225   0.0000       5.222913       142.1227 
 226   0.0000       5.232800       142.3917 
 227   0.0000       5.311411       144.5308 
 228   0.0000       5.456371       148.4754 
 229   0.0000       5.472036       148.9017 
 230   0.0000       5.485634       149.2717 
 231   0.0000       5.885964       160.1652 
 232   0.0000       5.904359       160.6658 
 233   0.0000       5.934871       161.4960 
 234   0.0000       6.159007       167.5951 
 235   0.0000       6.171949       167.9473 
 236   0.0000       6.206106       168.8767 
 237   0.0000       6.392667       173.9533 
 238   0.0000       6.417524       174.6297 
 239   0.0000       6.424044       174.8071 
 240   0.0000       6.534184       177.8042 
 241   0.0000       6.545050       178.0999 
 242   0.0000       6.549641       178.2248 
 243   0.0000       6.716334       182.7607 
 244   0.0000       6.744594       183.5297 
 245   0.0000       6.750986       183.7037 
 246   0.0000       6.829493       185.8400 
 247   0.0000       6.839183       186.1036 
 248   0.0000       6.841922       186.1782 
 249   0.0000       6.865398       186.8170 
 250   0.0000       6.879990       187.2140 
 251   0.0000       6.890629       187.5035 
 252   0.0000       6.907307       187.9574 
 253   0.0000       6.929197       188.5530 
 254   0.0000       6.946389       189.0209 
 255   0.0000       6.955070       189.2571 
 256   0.0000       6.962143       189.4496 
 257   0.0000       6.998765       190.4461 
 258   0.0000       7.006528       190.6573 
 259   0.0000       7.092138       192.9869 
 260   0.0000       7.107632       193.4085 
 261   0.0000       7.326402       199.3615 
 262   0.0000       7.336577       199.6384 
 263   0.0000       7.446228       202.6222 
 264   0.0000       7.526750       204.8133 
 265   0.0000       7.535794       205.0594 
 266   0.0000       7.546310       205.3455 
 267   0.0000       7.670950       208.7372 
 268   0.0000       7.681084       209.0129 
 269   0.0000       7.692494       209.3234 
 270   0.0000       8.425070       229.2578 
 271   0.0000       8.428528       229.3519 
 272   0.0000       8.470702       230.4995 
 273   0.0000      15.612769       424.8450 
 274   0.0000      15.842126       431.0862 
 275   0.0000      15.980955       434.8639 

                    ********************************
                    * MULLIKEN POPULATION ANALYSIS *
                    ********************************

-----------------------
MULLIKEN ATOMIC CHARGES
-----------------------
   0 O :   -0.409331
   1 H :    0.279051
   2 H :    0.131056
   3 O :   -0.422348
   4 H :    0.128978
   5 H :    0.287174
   6 O :   -0.405735
   7 H :    0.290856
   8 H :    0.120299
Sum of atomic charges:   -0.0000000

--------------------------------
MULLIKEN REDUCED ORBITAL CHARGES
--------------------------------
  0 O s       :     3.986845  s :     3.986845
      pz      :     1.552636  p :     4.416577
      px      :     1.263448
      py      :     1.600493
      dz2     :     0.000179  d :     0.005830
      dxz     :     0.000099
      dyz     :     0.000594
      dx2y2   :     0.002390
      dxy     :     0.002569
      f0      :     0.000071  f :     0.000079
      f+1     :    -0.000166
      f-1     :     0.000095
      f+2     :    -0.000004
      f-2     :     0.000148
      f+3     :     0.000038
      f-3     :    -0.000103
  1 H s       :     0.620263  s :     0.620263
      pz      :     0.046196  p :     0.069826
      px      :    -0.016241
      py      :     0.039871
      dz2     :    -0.002354  d :     0.030860
      dxz     :     0.012948
      dyz     :     0.000880
      dx2y2   :     0.011111
      dxy     :     0.008275
  2 H s       :     0.743829  s :     0.743829
      pz      :     0.034916  p :     0.108269
      px      :     0.029592
      py      :     0.043761
      dz2     :     0.008619  d :     0.016846
      dxz     :     0.000070
      dyz     :     0.001932
      dx2y2   :     0.003667
      dxy     :     0.002558
  3 O s       :     3.985185  s :     3.985185
      pz      :     1.562959  p :     4.429996
      px      :     1.564853
      py      :     1.302184
      dz2     :     0.000544  d :     0.007009
      dxz     :    -0.000335
      dyz     :     0.001181
      dx2y2   :     0.003667
      dxy     :     0.001953
      f0      :     0.000081  f :     0.000158
      f+1     :     0.000031
      f-1     :    -0.000074
      f+2     :     0.000184
      f-2     :    -0.000008
      f+3     :     0.000055
      f-3     :    -0.000111
  4 H s       :     0.745033  s :     0.745033
      pz      :     0.037741  p :     0.109781
      px      :     0.036480
      py      :     0.035561
      dz2     :     0.008234  d :     0.016208
      dxz     :     0.000114
      dyz     :     0.001656
      dx2y2   :     0.003314
      dxy     :     0.002890
  5 H s       :     0.613352  s :     0.613352
      pz      :     0.044912  p :     0.066132
      px      :     0.038017
      py      :    -0.016796
      dz2     :    -0.002150  d :     0.033342
      dxz     :     0.000786
      dyz     :     0.015164
      dx2y2   :    -0.001954
      dxy     :     0.021495
  6 O s       :     3.983266  s :     3.983266
      pz      :     1.505694  p :     4.415476
      px      :     1.472635
      py      :     1.437147
      dz2     :    -0.000139  d :     0.006912
      dxz     :     0.001227
      dyz     :     0.000487
      dx2y2   :     0.001480
      dxy     :     0.003857
      f0      :     0.000045  f :     0.000080
      f+1     :     0.000026
      f-1     :    -0.000112
      f+2     :     0.000066
      f-2     :     0.000065
      f+3     :     0.000059
      f-3     :    -0.000069
  7 H s       :     0.607218  s :     0.607218
      pz      :     0.043201  p :     0.069907
      px      :     0.013583
      py      :     0.013123
      dz2     :    -0.002273  d :     0.032018
      dxz     :     0.007288
      dyz     :     0.006522
      dx2y2   :     0.021472
      dxy     :    -0.000990
  8 H s       :     0.746522  s :     0.746522
      pz      :     0.030623  p :     0.115614
      px      :     0.043100
      py      :     0.041892
      dz2     :     0.008601  d :     0.017565
      dxz     :     0.003365
      dyz     :    -0.000873
      dx2y2   :     0.002397
      dxy     :     0.004074


                     *******************************
                     * LOEWDIN POPULATION ANALYSIS *
                     *******************************

----------------------
LOEWDIN ATOMIC CHARGES
----------------------
   0 O :    1.104271
   1 H :   -0.621452
   2 H :   -0.474780
   3 O :    1.101693
   4 H :   -0.477513
   5 H :   -0.630994
   6 O :    1.103172
   7 H :   -0.631098
   8 H :   -0.473299

-------------------------------
LOEWDIN REDUCED ORBITAL CHARGES
-------------------------------
  0 O s       :     2.966295  s :     2.966295
      pz      :     1.322001  p :     3.817562
      px      :     1.187358
      py      :     1.308203
      dz2     :     0.013582  d :     0.093766
      dxz     :     0.018525
      dyz     :     0.009644
      dx2y2   :     0.017801
      dxy     :     0.034215
      f0      :     0.000422  f :     0.018106
      f+1     :     0.003233
      f-1     :     0.002861
      f+2     :     0.000430
      f-2     :     0.004468
      f+3     :     0.001376
      f-3     :     0.005316
  1 H s       :     0.552004  s :     0.552004
      pz      :     0.149828  p :     0.604057
      px      :     0.284351
      py      :     0.169879
      dz2     :     0.046436  d :     0.465391
      dxz     :     0.123438
      dyz     :     0.019464
      dx2y2   :     0.155123
      dxy     :     0.120929
  2 H s       :     0.588437  s :     0.588437
      pz      :     0.212895  p :     0.542039
      px      :     0.153665
      py      :     0.175479
      dz2     :     0.091128  d :     0.344304
      dxz     :     0.070608
      dyz     :     0.067125
      dx2y2   :     0.066593
      dxy     :     0.048850
  3 O s       :     2.968372  s :     2.968372
      pz      :     1.324837  p :     3.819293
      px      :     1.277462
      py      :     1.216994
      dz2     :     0.013122  d :     0.092818
      dxz     :     0.022011
      dyz     :     0.005919
      dx2y2   :     0.041514
      dxy     :     0.010252
      f0      :     0.000501  f :     0.017825
      f+1     :     0.003155
      f-1     :     0.002497
      f+2     :     0.003486
      f-2     :     0.001656
      f+3     :     0.001390
      f-3     :     0.005140
  4 H s       :     0.589139  s :     0.589139
      pz      :     0.212301  p :     0.543700
      px      :     0.194750
      py      :     0.136649
      dz2     :     0.089924  d :     0.344674
      dxz     :     0.084728
      dyz     :     0.050998
      dx2y2   :     0.060711
      dxy     :     0.058313
  5 H s       :     0.551210  s :     0.551210
      pz      :     0.150916  p :     0.609441
      px      :     0.157816
      py      :     0.300709
      dz2     :     0.047120  d :     0.470343
      dxz     :     0.007485
      dyz     :     0.137169
      dx2y2   :     0.118819
      dxy     :     0.159750
  6 O s       :     2.967256  s :     2.967256
      pz      :     1.308450  p :     3.817972
      px      :     1.278441
      py      :     1.231081
      dz2     :     0.015592  d :     0.093454
      dxz     :     0.001564
      dyz     :     0.027083
      dx2y2   :     0.014916
      dxy     :     0.034299
      f0      :     0.000259  f :     0.018147
      f+1     :     0.002463
      f-1     :     0.004737
      f+2     :     0.003221
      f-2     :     0.001088
      f+3     :     0.001320
      f-3     :     0.005058
  7 H s       :     0.550821  s :     0.550821
      pz      :     0.148073  p :     0.608643
      px      :     0.239663
      py      :     0.220906
      dz2     :     0.046217  d :     0.471634
      dxz     :     0.082739
      dyz     :     0.063401
      dx2y2   :     0.142857
      dxy     :     0.136420
  8 H s       :     0.587206  s :     0.587206
      pz      :     0.219181  p :     0.541571
      px      :     0.146877
      py      :     0.175514
      dz2     :     0.098693  d :     0.344522
      dxz     :     0.059886
      dyz     :     0.085657
      dx2y2   :     0.040572
      dxy     :     0.059714


                      *****************************
                      * MAYER POPULATION ANALYSIS *
                      *****************************

  NA   - Mulliken gross atomic population
  ZA   - Total nuclear charge
  QA   - Mulliken gross atomic charge
  VA   - Mayer's total valence
  BVA  - Mayer's bonded valence
  FA   - Mayer's free valence

  ATOM       NA         ZA         QA         VA         BVA        FA
  0 O      8.4093     8.0000    -0.4093     1.9057     1.9057     0.0000
  1 H      0.7209     1.0000     0.2791     0.9128     0.9128     0.0000
  2 H      0.8689     1.0000     0.1311     1.0863     1.0863     0.0000
  3 O      8.4223     8.0000    -0.4223     1.8898     1.8898     0.0000
  4 H      0.8710     1.0000     0.1290     1.0932     1.0932     0.0000
  5 H      0.7128     1.0000     0.2872     0.9073     0.9073    -0.0000
  6 O      8.4057     8.0000    -0.4057     1.8992     1.8992    -0.0000
  7 H      0.7091     1.0000     0.2909     0.8967     0.8967    -0.0000
  8 H      0.8797     1.0000     0.1203     1.1110     1.1110    -0.0000

  Mayer bond orders larger than 0.100000
B(  0-O ,  1-H ) :   0.8699 B(  0-O ,  2-H ) :   1.0531 B(  3-O ,  4-H ) :   1.0544 
B(  3-O ,  5-H ) :   0.8566 B(  6-O ,  7-H ) :   0.8540 B(  6-O ,  8-H ) :   1.0632 


-------
TIMINGS
-------

Total SCF time: 0 days 0 hours 0 min 2 sec 

Total time                  ....       2.995 sec
Sum of individual times     ....       2.808 sec  ( 93.8%)

Fock matrix formation       ....       2.333 sec  ( 77.9%)
  Split-RI-J                ....       1.145 sec  ( 49.1% of F)
  XC integration            ....       1.074 sec  ( 46.0% of F)
    Basis function eval.    ....       0.107 sec  (  9.9% of XC)
    Density eval.           ....       0.211 sec  ( 19.6% of XC)
    XC-Functional eval.     ....       0.040 sec  (  3.7% of XC)
    XC-Potential eval.      ....       0.486 sec  ( 45.3% of XC)
Diagonalization             ....       0.067 sec  (  2.2%)
Density matrix formation    ....       0.018 sec  (  0.6%)
Population analysis         ....       0.011 sec  (  0.4%)
Initial guess               ....       0.128 sec  (  4.3%)
Orbital Transformation      ....       0.000 sec  (  0.0%)
Orbital Orthonormalization  ....       0.000 sec  (  0.0%)
DIIS solution               ....       0.025 sec  (  0.8%)
SOSCF solution              ....       0.055 sec  (  1.8%)
Grid generation             ....       0.171 sec  (  5.7%)


-------------------------------------------------------------------------------
                          DFT DISPERSION CORRECTION                            
                                                                               
                              DFTD3 V3.1  Rev 1                                
                          USING Becke-Johnson damping                          
-------------------------------------------------------------------------------
The TPSS functional is recognized
Active option DFTDOPT                   ...         4   

molecular C6(AA) [au] = 400.690546 


            DFT-D V3
 parameters
 s6 scaling factor         :     1.0000 
 a1 scaling factor         :     0.4535 
 s8 scaling factor         :     1.9435 
 a2 scaling factor         :     4.4752 
 ad hoc parameters k1-k3   :    16.0000     1.3333    -4.0000 

 Edisp/kcal,au: -2.418277575355  -0.003853770210 
 E6   /kcal   :  -1.362420209 
 E8   /kcal   :  -1.055857366 
 % E8         :  43.661545608 

-------------------------   ----------------
Dispersion correction           -0.003853770
-------------------------   ----------------


-------------------------   --------------------
FINAL SINGLE POINT ENERGY      -229.426905753693
-------------------------   --------------------



           ************************************************************
           *        Program running with 24 parallel MPI-processes    *
           *              working on a common directory               *
           ************************************************************
------------------------------------------------------------------------------
                         ORCA SCF GRADIENT CALCULATION
------------------------------------------------------------------------------

Gradient of the Kohn-Sham DFT energy:
Kohn-Sham wavefunction type      ... RKS
Hartree-Fock exchange scaling    ...    0.000
Number of operators              ...    1
Number of atoms                  ...    9
Basis set dimensions             ...  276
Integral neglect threshold       ... 2.5e-11
Integral primitive cutoff        ... 2.5e-12

Nuclear repulsion gradient       ... done
One Electron Gradient            ... done
Pre-screening matrix             ... done
RI-J gradient                    ... done
Exchange-correlation gradient    ... done
Dispersion correction            ... done

------------------
CARTESIAN GRADIENT
------------------

   1   O   :    0.005057635   -0.008730649    0.007218532
   2   H   :   -0.010932431    0.004322616   -0.000356942
   3   H   :    0.005370170    0.003219138   -0.006241995
   4   O   :    0.004682769    0.008920538    0.007198118
   5   H   :   -0.005621901    0.003056053   -0.006124249
   6   H   :    0.002152463   -0.011946422   -0.000080826
   7   O   :   -0.009916774   -0.000785991   -0.007587335
   8   H   :    0.009288525    0.007692212   -0.000271079
   9   H   :   -0.000042908   -0.005842654    0.006677359

Difference to translation invariance:
           :    0.0000375480   -0.0000951590    0.0004315831

Norm of the cartesian gradient     ...    0.0336200069
RMS gradient                       ...    0.0064701733
MAX gradient                       ...    0.0119464219

-------
TIMINGS
-------

Total SCF gradient time            ...        1.003 sec

One electron gradient       ....       0.012 sec  (  1.2%)
Prescreening matrices       ....       0.042 sec  (  4.2%)
RI-J Coulomb gradient       ....       0.233 sec  ( 23.3%)
XC gradient                 ....       0.478 sec  ( 47.6%)
------------------------------------------------------------------------------
                         ORCA GEOMETRY RELAXATION STEP
------------------------------------------------------------------------------

Reading the OPT-File                    .... done
Getting information on internals        .... done
Copying old internal coords+grads       .... done
Making the new internal coordinates     .... (new redundants).... done
Validating the new internal coordinates .... (new redundants).... done
Calculating the B-matrix                .... done
Calculating the G,G- and P matrices     .... done
Transforming gradient to internals      .... done
Projecting the internal gradient        .... done
Number of atoms                         ....   9
Number of internal coordinates          ....  90
Current Energy                          ....  -229.426905754 Eh
Current gradient norm                   ....     0.033620007 Eh/bohr
Maximum allowed component of the step   ....  0.300
Current trust radius                    ....  0.300
Evaluating the initial hessian          ....  (Almloef) done
Projecting the Hessian                  .... done
Forming the augmented Hessian           .... done
Diagonalizing the augmented Hessian     .... done
Last element of RFO vector              ....  0.998053748
Lowest eigenvalues of augmented Hessian:
 -0.001253620  0.011337802  0.031560289  0.032531987  0.046549555
Length of the computed step             ....  0.062481172
The final length of the internal step   ....  0.062481172
Converting the step to cartesian space:
 Initial RMS(Int)=    0.0065860939
Transforming coordinates:
 Iter   0:  RMS(Cart)=    0.0085918549 RMS(Int)=    0.0065844071
 Iter   1:  RMS(Cart)=    0.0000182687 RMS(Int)=    0.0000248738
 Iter   2:  RMS(Cart)=    0.0000001596 RMS(Int)=    0.0000001437
 Iter   3:  RMS(Cart)=    0.0000000014 RMS(Int)=    0.0000000012
done
Storing new coordinates                 .... done

                                .--------------------.
          ----------------------|Geometry convergence|-------------------------
          Item                value                   Tolerance       Converged
          ---------------------------------------------------------------------
          RMS gradient        0.0025248359            0.0001000000      NO
          MAX gradient        0.0095142078            0.0003000000      NO
          RMS step            0.0065860939            0.0020000000      NO
          MAX step            0.0219056871            0.0040000000      NO
          ........................................................
          Max(Bonds)      0.0116      Max(Angles)    0.43
          Max(Dihed)        0.10      Max(Improp)    0.00
          ---------------------------------------------------------------------

The optimization has not yet converged - more geometry cycles are needed


    ---------------------------------------------------------------------------
                         Redundant Internal Coordinates
                            (Angstroem and degrees)

        Definition                    Value    dE/dq     Step     New-Value
    ----------------------------------------------------------------------------
     1. B(H   1,O   0)                0.9700 -0.009364  0.0114    0.9814   
     2. B(H   2,O   0)                0.9582 -0.008913  0.0090    0.9672   
     3. B(O   3,H   1)                1.9251  0.000741 -0.0079    1.9172   
     4. B(H   4,O   3)                0.9581 -0.008954  0.0090    0.9671   
     5. B(H   5,H   1)                2.1478 -0.001163 -0.0047    2.1431   
     6. B(H   5,O   3)                0.9707 -0.009514  0.0116    0.9823   
     7. B(O   6,H   5)                1.9054  0.000830 -0.0089    1.8965   
     8. B(H   7,O   0)                1.9038  0.000948 -0.0093    1.8944   
     9. B(H   7,H   5)                2.1253 -0.001074 -0.0051    2.1202   
    10. B(H   7,O   6)                0.9706 -0.009468  0.0115    0.9821   
    11. B(H   7,H   1)                2.1410 -0.001155 -0.0054    2.1356   
    12. B(H   8,O   6)                0.9584 -0.008954  0.0090    0.9675   
    13. A(H   1,O   0,H   2)          105.72 -0.000941    0.15    105.87   
    14. A(H   1,O   0,H   7)           90.29  0.001401   -0.15     90.14   
    15. A(H   2,O   0,H   7)          127.84  0.000137   -0.04    127.80   
    16. A(O   0,H   1,O   3)          148.48 -0.001385    0.14    148.62   
    17. A(O   3,H   1,H   5)           26.87 -0.002476    0.41     27.28   
    18. A(O   0,H   1,H   7)           62.77  0.001053   -0.26     62.51   
    19. A(O   3,H   1,H   7)           86.27 -0.002453    0.40     86.67   
    20. A(H   5,H   1,H   7)           59.41  0.000021   -0.00     59.41   
    21. A(O   0,H   1,H   5)          121.95  0.001059   -0.26    121.69   
    22. A(H   1,O   3,H   4)          131.07  0.000043   -0.03    131.04   
    23. A(H   1,O   3,H   5)           89.46  0.001457   -0.18     89.28   
    24. A(H   4,O   3,H   5)          105.67 -0.000877    0.13    105.80   
    25. A(H   1,H   5,O   3)           63.68  0.001019   -0.23     63.45   
    26. A(H   1,H   5,H   7)           60.14 -0.000010   -0.02     60.12   
    27. A(O   3,H   5,H   7)          123.79  0.001011   -0.24    123.55   
    28. A(H   1,H   5,O   6)           87.28 -0.002507    0.40     87.68   
    29. A(O   6,H   5,H   7)           27.17 -0.002501    0.42     27.59   
    30. A(O   3,H   5,O   6)          150.96 -0.001489    0.17    151.13   
    31. A(H   7,O   6,H   8)          105.46 -0.000784    0.13    105.59   
    32. A(H   5,O   6,H   8)          124.00  0.000032   -0.04    123.96   
    33. A(H   5,O   6,H   7)           89.14  0.001450   -0.15     88.99   
    34. A(H   1,H   7,H   5)           60.45 -0.000012    0.02     60.47   
    35. A(O   0,H   7,H   5)           87.29 -0.002463    0.43     87.73   
    36. A(O   0,H   7,O   6)          150.99 -0.001412    0.17    151.15   
    37. A(H   5,H   7,O   6)           63.69  0.001051   -0.27     63.43   
    38. A(O   0,H   7,H   1)           26.94 -0.002455    0.42     27.36   
    39. A(H   1,H   7,O   6)          124.09  0.001042   -0.25    123.84   
    40. D(O   3,H   1,O   0,H   7)    -11.77  0.000453   -0.07    -11.84   
    41. D(H   7,H   1,O   0,H   2)   -129.70 -0.000439    0.06   -129.64   
    42. D(H   5,H   1,O   0,H   7)     -5.48 -0.000194    0.03     -5.45   
    43. D(H   5,H   1,O   0,H   2)   -135.19 -0.000633    0.10   -135.09   
    44. D(O   3,H   1,O   0,H   2)   -141.47  0.000014   -0.00   -141.48   
    45. D(H   5,O   3,H   1,O   0)     11.86 -0.000345    0.06     11.92   
    46. D(H   4,O   3,H   1,O   0)    122.35 -0.000178    0.06    122.41   
    47. D(H   4,O   3,H   1,H   5)    110.48  0.000167    0.01    110.49   
    48. D(H   5,O   3,H   1,H   7)      1.39 -0.000074    0.03      1.42   
    49. D(H   4,O   3,H   1,H   7)    111.87  0.000094    0.03    111.91   
    50. D(O   6,H   5,H   1,H   7)      1.16 -0.000135    0.03      1.20   
    51. D(O   6,H   5,H   1,O   0)      6.83  0.000118   -0.02      6.81   
    52. D(O   3,H   5,H   1,H   7)   -178.39 -0.000090    0.03   -178.36   
    53. D(O   6,H   5,H   1,O   3)    179.55 -0.000045   -0.00    179.55   
    54. D(O   6,H   5,O   3,H   1)     -0.92 -0.000047   -0.01     -0.93   
    55. D(H   7,H   5,O   3,H   4)   -134.50 -0.000299    0.04   -134.47   
    56. D(O   6,H   5,O   3,H   4)   -133.74 -0.000421    0.06   -133.68   
    57. D(H   1,H   5,O   3,H   4)   -132.82 -0.000373    0.07   -132.76   
    58. D(O   3,H   5,H   1,O   0)   -172.72  0.000163   -0.02   -172.74   
    59. D(H   7,H   5,O   3,H   1)     -1.68  0.000074   -0.03     -1.71   
    60. D(H   7,H   5,H   1,O   3)    178.39  0.000090   -0.03    178.36   
    61. D(H   7,H   5,H   1,O   0)      5.67  0.000253   -0.05      5.62   
    62. D(H   8,O   6,H   5,H   7)   -108.14 -0.000070   -0.04   -108.19   
    63. D(H   8,O   6,H   5,H   1)   -110.35 -0.000001   -0.07   -110.43   
    64. D(H   7,O   6,H   5,H   1)     -2.21  0.000068   -0.03     -2.24   
    65. D(H   8,O   6,H   5,O   3)   -109.53  0.000050   -0.07   -109.60   
    66. D(H   7,O   6,H   5,O   3)     -1.39  0.000120   -0.02     -1.41   
    67. D(H   5,H   7,O   0,H   1)      4.71  0.000120   -0.02      4.69   
    68. D(H   1,H   7,O   0,H   2)    110.31 -0.000020    0.06    110.37   
    69. D(O   6,H   7,O   0,H   2)    114.83 -0.000004    0.02    114.86   
    70. D(O   6,H   7,O   0,H   1)      4.52  0.000016   -0.03      4.49   
    71. D(H   5,H   7,O   6,H   8)    125.18  0.000371   -0.07    125.11   
    72. D(H   1,H   7,O   6,H   5)      2.68 -0.000056    0.03      2.71   
    73. D(H   1,H   7,O   6,H   8)    127.86  0.000315   -0.04    127.81   
    74. D(O   0,H   7,O   6,H   5)      0.20  0.000114    0.02      0.22   
    75. D(H   1,H   7,H   5,O   6)   -177.45 -0.000084    0.03   -177.42   
    76. D(H   1,H   7,H   5,O   3)      1.74 -0.000061    0.03      1.76   
    77. D(O   0,H   7,H   5,O   6)   -179.90  0.000060    0.01   -179.89   
    78. D(O   0,H   7,H   5,H   1)     -2.45  0.000144   -0.03     -2.48   
    79. D(O   0,H   7,H   5,O   3)     -0.71  0.000083    0.00     -0.71   
    80. D(O   6,H   7,H   5,H   1)    177.45  0.000084   -0.03    177.42   
    81. D(O   6,H   7,H   5,O   3)    179.19  0.000023   -0.01    179.18   
    82. D(H   5,H   7,H   1,O   3)     -0.73  0.000101   -0.02     -0.75   
    83. D(H   5,H   7,H   1,O   0)   -174.59  0.000128   -0.02   -174.61   
    84. D(O   0,H   7,H   1,H   5)    174.59 -0.000128    0.02    174.61   
    85. D(O   0,H   7,O   6,H   8)    125.38  0.000485   -0.05    125.33   
    86. D(O   0,H   7,H   1,O   3)    173.86 -0.000026   -0.01    173.86   
    87. D(O   6,H   7,H   1,H   5)     -2.76  0.000032   -0.02     -2.78   
    88. D(O   6,H   7,H   1,O   3)     -3.49  0.000133   -0.05     -3.54   
    89. D(O   6,H   7,H   1,O   0)   -177.35  0.000159   -0.04   -177.39   
    90. D(H   5,H   7,O   0,H   2)    115.02  0.000100    0.04    115.06   
    ----------------------------------------------------------------------------

         *************************************************************
         *                GEOMETRY OPTIMIZATION CYCLE   2            *
         *************************************************************
---------------------------------
CARTESIAN COORDINATES (ANGSTROEM)
---------------------------------
  O     -1.479686   -0.645469   -0.083461
  H     -0.605324   -1.088818   -0.038737
  H     -2.034832   -1.088525    0.572970
  O      1.305942   -0.948106   -0.093902
  H      1.980375   -1.203681    0.550429
  H      1.223679    0.028059   -0.022045
  O      0.172282    1.600869    0.110186
  H     -0.635289    1.044259    0.060269
  H      0.083085    2.252606   -0.599260

----------------------------
CARTESIAN COORDINATES (A.U.)
----------------------------
  NO LB      ZA    FRAG     MASS         X           Y           Z
   0 O     8.0000    0    15.999   -2.796201   -1.219760   -0.157718
   1 H     1.0000    0     1.008   -1.143896   -2.057567   -0.073202
   2 H     1.0000    0     1.008   -3.845274   -2.057014    1.082756
   3 O     8.0000    0    15.999    2.467872   -1.791660   -0.177448
   4 H     1.0000    0     1.008    3.742366   -2.274627    1.040161
   5 H     1.0000    0     1.008    2.312417    0.053025   -0.041660
   6 O     8.0000    0    15.999    0.325565    3.025203    0.208222
   7 H     1.0000    0     1.008   -1.200522    1.973363    0.113892
   8 H     1.0000    0     1.008    0.157009    4.256808   -1.132437

--------------------------------
INTERNAL COORDINATES (ANGSTROEM)
--------------------------------
 O      0   0   0     0.000000000000     0.00000000     0.00000000
 H      1   0   0     0.981360293433     0.00000000     0.00000000
 H      1   2   0     0.967153440329   105.87429284     0.00000000
 O      2   1   3     1.917231638963   148.61961557   218.52414382
 H      4   2   1     0.967130574275   131.04262041   122.40959703
 H      4   2   1     0.982257217937    89.27489402    11.92053994
 O      6   4   2     1.896483448248   151.12985889   359.07356786
 H      7   6   4     0.982077721765    88.98585613   358.58891237
 H      7   6   4     0.967486962674   123.96263984   250.40232545

---------------------------
INTERNAL COORDINATES (A.U.)
---------------------------
 O      0   0   0     0.000000000000     0.00000000     0.00000000
 H      1   0   0     1.854502193294     0.00000000     0.00000000
 H      1   2   0     1.827655131702   105.87429284     0.00000000
 O      2   1   3     3.623042732929   148.61961557   218.52414382
 H      4   2   1     1.827611921121   131.04262041   122.40959703
 H      4   2   1     1.856197134967    89.27489402    11.92053994
 O      6   4   2     3.583834334703   151.12985889   359.07356786
 H      7   6   4     1.855857936362    88.98585613   358.58891237
 H      7   6   4     1.828285397593   123.96263984   250.40232545



           ************************************************************
           *        Program running with 24 parallel MPI-processes    *
           *              working on a common directory               *
           ************************************************************
 One Electron integrals                  ... done
 Pre-screening matrix                    ... done


           ************************************************************
           *        Program running with 24 parallel MPI-processes    *
           *              working on a common directory               *
           ************************************************************

Diagonalization of the overlap matrix:
Smallest eigenvalue                        ... 1.528e-04
Time for diagonalization                   ...    0.012 sec
Threshold for overlap eigenvalues          ... 1.000e-08
Number of eigenvalues below threshold      ... 0
Time for construction of square roots      ...    0.008 sec
Total time needed                          ...    0.021 sec

-------------------
DFT GRID GENERATION
-------------------

General Integration Accuracy     IntAcc      ...  4.670
Radial Grid Type                 RadialGrid  ... Gauss-Chebyshev
Angular Grid (max. acc.)         AngularGrid ... Lebedev-302
Angular grid pruning method      GridPruning ... 3 (G Style)
Weight generation scheme         WeightScheme... Becke
Basis function cutoff            BFCut       ...    1.0000e-11
Integration weight cutoff        WCut        ...    1.0000e-14
Grids for H and He will be reduced by one unit

# of grid points (after initial pruning)     ...  39000 (   0.0 sec)
# of grid points (after weights+screening)   ...  37279 (   0.0 sec)
nearest neighbour list constructed           ...    0.0 sec
Grid point re-assignment to atoms done       ...    0.0 sec
Grid point division into batches done        ...    0.1 sec
Reduced shell lists constructed in    0.1 sec

Total number of grid points                  ...    37279
Total number of batches                      ...      586
Average number of points per batch           ...       63
Average number of grid points per atom       ...     4142
Average number of shells per batch           ...    68.00 (70.83%)
Average number of basis functions per batch  ...   189.08 (68.51%)
Average number of large shells per batch     ...    55.85 (82.13%)
Average number of large basis fcns per batch ...   152.46 (80.63%)
Maximum spatial batch extension              ...   9.53, 16.88, 10.93 au
Average spatial batch extension              ...   0.14,  0.17,  0.15 au

Time for grid setup =    0.171 sec

--------------
SCF ITERATIONS
--------------
ITER       Energy         Delta-E        Max-DP      RMS-DP      [F,P]     Damp
               ***  Starting incremental Fock matrix formation  ***
                      *** Initiating the SOSCF procedure ***
                      *** Re-Reading the Fockian *** 
                      *** Removing any level shift *** 
ITER      Energy       Delta-E        Grad      Rot      Max-DP    RMS-DP
  0   -229.42355459 -229.4235545903  0.002085  0.002085  0.006357  0.000120
               *** Restarting incremental Fock matrix formation ***
  1   -229.42372706  -0.0001724743  0.000539  0.000770  0.001380  0.000035
  2   -229.42371388   0.0000131889  0.000803  0.000440  0.000701  0.000019
  3   -229.42374251  -0.0000286295  0.000066  0.000081  0.000188  0.000003
  4   -229.42374269  -0.0000001809  0.000034  0.000018  0.000051  0.000001
                  ***Gradient check signals convergence***
              ***Rediagonalizing the Fockian in SOSCF/NRSCF***

               *****************************************************
               *                     SUCCESS                       *
               *           SCF CONVERGED AFTER   5 CYCLES          *
               *****************************************************

Total Energy       :         -229.42374276 Eh           -6242.93743 eV
  Last Energy change         ...   -7.1314e-08  Tolerance :   1.0000e-08
  Last MAX-Density change    ...    9.0661e-06  Tolerance :   1.0000e-07
             **** THE GBW FILE WAS UPDATED (03_H2O_3.gbw) ****
             **** DENSITY FILE WAS UPDATED (03_H2O_3.scfp) ****
             **** ENERGY FILE WAS UPDATED (03_H2O_3.en.tmp) ****
             **** THE GBW FILE WAS UPDATED (03_H2O_3.gbw) ****
             **** DENSITY FILE WAS UPDATED (03_H2O_3.scfp) ****
Total SCF time: 0 days 0 hours 0 min 1 sec 


-------------------------------------------------------------------------------
                          DFT DISPERSION CORRECTION                            
                                                                               
                              DFTD3 V3.1  Rev 1                                
                          USING Becke-Johnson damping                          
-------------------------------------------------------------------------------
-------------------------   ----------------
Dispersion correction           -0.003846999
-------------------------   ----------------


-------------------------   --------------------
FINAL SINGLE POINT ENERGY      -229.427589756228
-------------------------   --------------------



           ************************************************************
           *        Program running with 24 parallel MPI-processes    *
           *              working on a common directory               *
           ************************************************************
------------------------------------------------------------------------------
                         ORCA SCF GRADIENT CALCULATION
------------------------------------------------------------------------------

Gradient of the Kohn-Sham DFT energy:
Kohn-Sham wavefunction type      ... RKS
Hartree-Fock exchange scaling    ...    0.000
Number of operators              ...    1
Number of atoms                  ...    9
Basis set dimensions             ...  276
Integral neglect threshold       ... 2.5e-11
Integral primitive cutoff        ... 2.5e-12

Nuclear repulsion gradient       ... done
One Electron Gradient            ... done
Pre-screening matrix             ... done
RI-J gradient                    ... done
Exchange-correlation gradient    ... done
Dispersion correction            ... done

------------------
CARTESIAN GRADIENT
------------------

   1   O   :    0.001509859   -0.001278299    0.001514256
   2   H   :   -0.002223630    0.000356171   -0.000499551
   3   H   :   -0.000314081   -0.000507969   -0.000420621
   4   O   :    0.000105488    0.002025632    0.001318085
   5   H   :    0.000625727    0.000070698   -0.000397632
   6   H   :    0.000963756   -0.002391823    0.000158168
   7   O   :   -0.001902281   -0.000820016   -0.001318492
   8   H   :    0.001582782    0.001962263   -0.000257844
   9   H   :   -0.000321001    0.000496282    0.000345020

Difference to translation invariance:
           :    0.0000266190   -0.0000870605    0.0004413882

Norm of the cartesian gradient     ...    0.0061694615
RMS gradient                       ...    0.0011873134
MAX gradient                       ...    0.0023918227

-------
TIMINGS
-------

Total SCF gradient time            ...        1.021 sec

One electron gradient       ....       0.009 sec  (  0.9%)
Prescreening matrices       ....       0.042 sec  (  4.1%)
RI-J Coulomb gradient       ....       0.192 sec  ( 18.9%)
XC gradient                 ....       0.474 sec  ( 46.4%)
------------------------------------------------------------------------------
                         ORCA GEOMETRY RELAXATION STEP
------------------------------------------------------------------------------

Reading the OPT-File                    .... done
Getting information on internals        .... done
Copying old internal coords+grads       .... done
Making the new internal coordinates     .... (new redundants).... done
Validating the new internal coordinates .... (new redundants).... done
Calculating the B-matrix                .... done
[...]
             <<<Displacing   1/coordinate 2 (-)>>>
             <<<Displacing   9/coordinate 1 (+)>>>
             <<<Displacing   9/coordinate 2 (+)>>>
             <<<Displacing   9/coordinate 3 (+)>>>
             <<<Displacing   9/coordinate 1 (-)>>>
             <<<Displacing   9/coordinate 2 (-)>>>
             <<<Displacing   9/coordinate 3 (-)>>>

-----------------------
VIBRATIONAL FREQUENCIES
-----------------------

Scaling factor for frequencies =  1.000000000 (already applied!)

   0:         0.00 cm**-1
   1:         0.00 cm**-1
   2:         0.00 cm**-1
   3:         0.00 cm**-1
   4:         0.00 cm**-1
   5:         0.00 cm**-1
   6:       198.59 cm**-1
   7:       205.64 cm**-1
   8:       231.87 cm**-1
   9:       236.46 cm**-1
  10:       247.12 cm**-1
  11:       277.62 cm**-1
  12:       389.04 cm**-1
  13:       406.87 cm**-1
  14:       488.96 cm**-1
  15:       648.32 cm**-1
  16:       722.67 cm**-1
  17:       967.09 cm**-1
  18:      1636.91 cm**-1
  19:      1639.83 cm**-1
  20:      1659.64 cm**-1
  21:      3308.73 cm**-1
  22:      3397.04 cm**-1
  23:      3411.00 cm**-1
  24:      3761.45 cm**-1
  25:      3764.19 cm**-1
  26:      3767.33 cm**-1


------------
NORMAL MODES
------------

These modes are the cartesian displacements weighted by the diagonal matrix
M(i,i)=1/sqrt(m[i]) where m[i] is the mass of the displaced atom
Thus, these vectors are normalized but *not* orthogonal

                  0          1          2          3          4          5    
      0       0.000000   0.000000   0.000000   0.000000   0.000000   0.000000
      1       0.000000   0.000000   0.000000   0.000000   0.000000   0.000000
      2       0.000000   0.000000   0.000000   0.000000   0.000000   0.000000
      3       0.000000   0.000000   0.000000   0.000000   0.000000   0.000000
      4       0.000000   0.000000   0.000000   0.000000   0.000000   0.000000
      5       0.000000   0.000000   0.000000   0.000000   0.000000   0.000000
      6       0.000000   0.000000   0.000000   0.000000   0.000000   0.000000
      7       0.000000   0.000000   0.000000   0.000000   0.000000   0.000000
      8       0.000000   0.000000   0.000000   0.000000   0.000000   0.000000
      9       0.000000   0.000000   0.000000   0.000000   0.000000   0.000000
     10       0.000000   0.000000   0.000000   0.000000   0.000000   0.000000
     11       0.000000   0.000000   0.000000   0.000000   0.000000   0.000000
     12       0.000000   0.000000   0.000000   0.000000   0.000000   0.000000
     13       0.000000   0.000000   0.000000   0.000000   0.000000   0.000000
     14       0.000000   0.000000   0.000000   0.000000   0.000000   0.000000
     15       0.000000   0.000000   0.000000   0.000000   0.000000   0.000000
     16       0.000000   0.000000   0.000000   0.000000   0.000000   0.000000
     17       0.000000   0.000000   0.000000   0.000000   0.000000   0.000000
     18       0.000000   0.000000   0.000000   0.000000   0.000000   0.000000
     19       0.000000   0.000000   0.000000   0.000000   0.000000   0.000000
     20       0.000000   0.000000   0.000000   0.000000   0.000000   0.000000
     21       0.000000   0.000000   0.000000   0.000000   0.000000   0.000000
     22       0.000000   0.000000   0.000000   0.000000   0.000000   0.000000
     23       0.000000   0.000000   0.000000   0.000000   0.000000   0.000000
     24       0.000000   0.000000   0.000000   0.000000   0.000000   0.000000
     25       0.000000   0.000000   0.000000   0.000000   0.000000   0.000000
     26       0.000000   0.000000   0.000000   0.000000   0.000000   0.000000
                  6          7          8          9         10         11    
      0       0.280366  -0.168278  -0.114268   0.104706   0.018446   0.002811
      1      -0.120236  -0.247691  -0.003350   0.130509   0.021067   0.018060
      2       0.005620  -0.025431   0.031132   0.045788  -0.007467   0.010058
      3       0.325387  -0.080317  -0.139312   0.074251  -0.053017   0.056411
      4      -0.039496  -0.058528  -0.045707   0.051031  -0.091190   0.078925
      5       0.048297  -0.038563  -0.030342   0.054936   0.146810  -0.241793
      6       0.105845  -0.060698  -0.358427  -0.257042  -0.158627   0.261504
      7      -0.498135  -0.346034  -0.626013  -0.500658   0.114100  -0.009197
      8      -0.302347   0.001459  -0.442031  -0.515012  -0.084683   0.176589
      9      -0.293609  -0.141425   0.133919  -0.067067  -0.009138   0.030505
     10      -0.113957   0.263564  -0.070770   0.090586  -0.013791   0.016408
     11      -0.007993   0.028548  -0.016020   0.004291   0.016113  -0.037768
     12      -0.321486   0.036310  -0.013511  -0.102009   0.563193  -0.439803
     13      -0.234010   0.128147   0.005697   0.180700  -0.121494  -0.280429
     14      -0.030402  -0.172793   0.136549   0.066769  -0.499741   0.238300
     15      -0.055943  -0.134067   0.053106  -0.162740   0.006935  -0.019956
     16      -0.083444   0.250098  -0.081504   0.098246  -0.041714  -0.020965
     17      -0.032286   0.207345  -0.059929  -0.052794   0.254035   0.255773
     18       0.012136   0.281279   0.017827   0.003738  -0.046131  -0.042453
     19       0.272311  -0.008339   0.119526  -0.180983   0.026890   0.009532
     20       0.018658   0.005369   0.001780  -0.030143   0.021501   0.022187
     21       0.072368   0.161667  -0.024493  -0.072261   0.003057  -0.028133
     22       0.169004   0.157425   0.147861  -0.135771  -0.038153  -0.011676
     23       0.184754   0.061929   0.309002   0.269918  -0.002090   0.011762
     24      -0.108602   0.528236  -0.112200  -0.136930   0.222908   0.314987
     25       0.081083  -0.250673  -0.121013  -0.330203  -0.363823  -0.455029
     26      -0.126501  -0.194063  -0.181360  -0.140253  -0.292827  -0.352957
                 12         13         14         15         16         17    
      0       0.031574  -0.001043  -0.007215  -0.023723  -0.016692  -0.025593
      1      -0.026116  -0.012867   0.024009  -0.018287   0.014877   0.003101
      2       0.014148  -0.043723   0.002550  -0.029517   0.019602  -0.008021
      3      -0.054712  -0.048680   0.064951   0.274545  -0.023816   0.161418
      4      -0.136187  -0.109613   0.115326   0.665096  -0.025681   0.406768
      5       0.414579  -0.000114  -0.368780   0.436470  -0.130152   0.229833
      6      -0.363660   0.055933   0.360314   0.066482   0.013540   0.086898
      7       0.216624   0.338248  -0.290250  -0.015734  -0.193930  -0.148941
      8      -0.143800   0.169458   0.106119   0.036215  -0.062001   0.001039
      9       0.016609  -0.009469  -0.011434  -0.004054  -0.024778   0.013705
     10      -0.009666  -0.016980  -0.047786  -0.010835   0.004085  -0.018988
     11      -0.046999   0.002742   0.024495   0.001937   0.016443  -0.018660
     12      -0.183111   0.023900   0.286366   0.017432   0.013794   0.036118
     13       0.289323   0.379880   0.433398  -0.038538   0.064511   0.127860
     14       0.236296   0.129140  -0.036670  -0.025129   0.007822   0.025923
     15      -0.251913  -0.108522  -0.299665   0.343033   0.495132  -0.481275
     16      -0.017563   0.018591  -0.044549   0.057576   0.109349  -0.101680
     17      -0.192445  -0.351447  -0.224472  -0.230603  -0.392240   0.301621
     18      -0.020370   0.027035  -0.016176  -0.009303  -0.022287   0.013443
     19       0.008237   0.026244  -0.005237  -0.018537   0.016721   0.023254
     20       0.032443   0.035256   0.010296   0.008957   0.029753   0.007632
     21      -0.061124   0.133020  -0.183487  -0.175334   0.352808   0.339473
     22       0.119471  -0.196336   0.244180   0.193145  -0.437195  -0.406566
     23      -0.288950   0.410898  -0.072780   0.141069  -0.412263  -0.252346
     24       0.473078  -0.317903   0.324256   0.062369   0.160500  -0.167313
     25      -0.034477  -0.373592   0.002403  -0.105110  -0.083408   0.005638
     26      -0.019201  -0.267068   0.003908  -0.062450  -0.055517  -0.003721
                 18         19         20         21         22         23    
      0       0.009916   0.007977   0.004979  -0.025689  -0.005994   0.044922
      1      -0.030019  -0.016772  -0.028856   0.012715   0.003510  -0.024488
      2       0.029748   0.023268   0.026667  -0.004278  -0.001881   0.007316
      3       0.151525   0.091530   0.173810   0.420344   0.111027  -0.780422
      4       0.258815   0.149060   0.285993  -0.209316  -0.050625   0.363146
      5      -0.401335  -0.269913  -0.363587   0.023681   0.008004  -0.036922
      6      -0.324402  -0.202983  -0.307939  -0.042137  -0.018807   0.078895
      7       0.239088   0.134260   0.221064  -0.020843  -0.014036   0.026337
      8      -0.111772  -0.078129  -0.107058   0.042328   0.022049  -0.078310
      9      -0.023228   0.007905   0.020579   0.003487  -0.002471   0.000960
     10      -0.028101   0.007825   0.015958  -0.038300   0.042154  -0.014612
     11      -0.033160   0.014559   0.030092  -0.007292   0.008100  -0.002270
     12       0.051270   0.001910  -0.005169   0.049366  -0.055014   0.004887
     13       0.464668  -0.145635  -0.341435  -0.034611   0.046210  -0.014942
     14       0.141906  -0.057147  -0.125981   0.049980  -0.060809   0.011536
     15       0.342701  -0.121297  -0.328105  -0.065504   0.089858  -0.030179
     16      -0.019528   0.002292   0.012386   0.629076  -0.709977   0.241945
     17       0.453328  -0.166172  -0.353672   0.066728  -0.066861   0.022560
     18      -0.003301   0.038677  -0.019780   0.029491   0.033409   0.020639
     19      -0.001779  -0.005001   0.007876   0.020673   0.021902   0.013251
     20      -0.007369   0.044790  -0.019947   0.006415   0.005983   0.004605
     21       0.004057  -0.163247   0.115439  -0.485292  -0.540202  -0.336381
     22      -0.019893   0.318938  -0.222217  -0.341830  -0.394592  -0.250737
     23       0.067741  -0.568014   0.279175  -0.046623  -0.045371  -0.027409
     24       0.038536  -0.471882   0.260252   0.007520   0.017214   0.007393
     25       0.027566  -0.237522   0.123927   0.055483   0.050604   0.044526
     26       0.021241  -0.171928   0.086844  -0.054292  -0.050674  -0.044639
                  24         25         26    
      0      -0.005831  -0.026647  -0.029881
      1      -0.002015  -0.012530  -0.013293
      2       0.005898   0.030309   0.032718
      3       0.021777   0.054705   0.071932
      4      -0.012652  -0.039862  -0.049198
      5       0.004852   0.020059   0.025841
      6       0.071775   0.366367   0.398050
      7       0.047764   0.237764   0.257946
      8      -0.098898  -0.502304  -0.544648
      9       0.002980  -0.027972   0.025417
     10      -0.001268   0.019555  -0.016865
     11       0.003621  -0.032024   0.028776
     12      -0.050311   0.448272  -0.403702
     13       0.026153  -0.226819   0.205500
     14      -0.059923   0.535849  -0.482796
     15       0.002981  -0.004303   0.006135
     16      -0.005670  -0.081131   0.060356
     17       0.003697  -0.027613   0.024718
     18      -0.005324   0.000922   0.000839
     19      -0.041634   0.001659   0.006755
     20       0.045839  -0.001246  -0.007144
     21       0.089169  -0.014008  -0.015242
     22       0.043759  -0.010468  -0.007761
     23       0.035613  -0.000685  -0.004589
     24      -0.005641   0.001243   0.000361
     25       0.613571  -0.017320  -0.095386
     26      -0.763985   0.021694   0.118823


-----------
IR SPECTRUM  
-----------

 Mode    freq (cm**-1)   T**2         TX         TY         TZ
-------------------------------------------------------------------
   6:       198.59   23.557568  (  3.076108  -3.535128  -1.264121)
   7:       205.64   14.428633  (  2.779687   2.494620  -0.691986)
   8:       231.87   64.962543  ( -5.444172  -5.540166  -2.151765)
   9:       236.46   60.096340  ( -6.090707  -4.230812  -2.258287)
  10:       247.12   97.154405  (  5.032232  -6.882097  -4.946493)
  11:       277.62   61.617619  (  2.054381  -7.523272   0.893036)
  12:       389.04   77.218579  ( -6.054715   6.365808   0.188374)
  13:       406.87   19.230477  ( -4.289538  -0.146367   0.899400)
  14:       488.96  120.896723  (  6.332780   7.388411  -5.118985)
  15:       648.32  181.193727  ( 10.955031   7.390960   2.560222)
  16:       722.67  269.342969  (  9.555733 -10.021778  -8.808797)
  17:       967.09    7.020294  ( -0.520217  -1.176711   2.316251)
  18:      1636.91   41.632975  (  3.800287   5.107848   1.049133)
  19:      1639.83   86.953830  ( -4.693592   3.205313  -7.392563)
  20:      1659.64   10.643643  ( -0.477205   0.769795  -3.134220)
  21:      3308.73   17.139824  ( -3.910899   1.344065  -0.195406)
  22:      3397.04  738.697590  ( -0.277593 -27.176051   0.287678)
  23:      3411.00  687.696877  (-26.215409   0.286100   0.606114)
  24:      3761.45   65.577080  (  3.194992   6.160791  -4.172979)
  25:      3764.19   66.719775  (  7.362878  -3.534558   0.121298)
  26:      3767.33   27.586958  (  1.802686   2.978336  -3.932785)

The first frequency considered to be a vibration is 6
The total number of vibrations considered is 21


--------------------------
THERMOCHEMISTRY AT 298.15K
--------------------------

Temperature         ... 298.15 K
Pressure            ... 1.00 atm
Total Mass          ... 54.05 AMU

Throughout the following assumptions are being made:
  (1) The electronic state is orbitally nondegenerate
  (2) There are no thermally accessible electronically excited states
  (3) Hindered rotations indicated by low frequency modes are not
      treated as such but are treated as vibrations and this may
      cause some error
  (4) All equations used are the standard statistical mechanics
      equations for an ideal gas
  (5) All vibrations are strictly harmonic

freq.     198.59  E(vib)   ...       0.35 
freq.     205.64  E(vib)   ...       0.35 
freq.     231.87  E(vib)   ...       0.32 
freq.     236.46  E(vib)   ...       0.32 
freq.     247.12  E(vib)   ...       0.31 
freq.     277.62  E(vib)   ...       0.28 
freq.     389.04  E(vib)   ...       0.20 
freq.     406.87  E(vib)   ...       0.19 
freq.     488.96  E(vib)   ...       0.15 
freq.     648.32  E(vib)   ...       0.08 
freq.     722.67  E(vib)   ...       0.07 
freq.     967.09  E(vib)   ...       0.03 
freq.    1636.91  E(vib)   ...       0.00 
freq.    1639.83  E(vib)   ...       0.00 
freq.    1659.64  E(vib)   ...       0.00 
freq.    3308.73  E(vib)   ...       0.00 
freq.    3397.04  E(vib)   ...       0.00 
freq.    3411.00  E(vib)   ...       0.00 
freq.    3761.45  E(vib)   ...       0.00 
freq.    3764.19  E(vib)   ...       0.00 
freq.    3767.33  E(vib)   ...       0.00 

------------
INNER ENERGY
------------

The inner energy is: U= E(el) + E(ZPE) + E(vib) + E(rot) + E(trans)
    E(el)   - is the total energy from the electronic structure calculation
              = E(kin-el) + E(nuc-el) + E(el-el) + E(nuc-nuc)
    E(ZPE)  - the the zero temperature vibrational energy from the frequency calculation
    E(vib)  - the the finite temperature correction to E(ZPE) due to population
              of excited vibrational states
    E(rot)  - is the rotational thermal energy
    E(trans)- is the translational thermal energy

Summary of contributions to the inner energy U:
Electronic energy                ...   -229.42807708 Eh
Zero point energy                ...      0.07145782 Eh      44.84 kcal/mol
Thermal vibrational correction   ...      0.00421703 Eh       2.65 kcal/mol
Thermal rotational correction    ...      0.00141627 Eh       0.89 kcal/mol
Thermal translational correction ...      0.00141627 Eh       0.89 kcal/mol
-----------------------------------------------------------------------
Total thermal energy                   -229.34956969 Eh


Summary of corrections to the electronic energy:
(perhaps to be used in another calculation)
Total thermal correction                  0.00704957 Eh       4.42 kcal/mol
Non-thermal (ZPE) correction              0.07145782 Eh      44.84 kcal/mol
-----------------------------------------------------------------------
Total correction                          0.07850739 Eh      49.26 kcal/mol


--------
ENTHALPY
--------

The enthalpy is H = U + kB*T
                kB is Boltzmann's constant
Total free energy                 ...   -229.34956969 Eh 
Thermal Enthalpy correction       ...      0.00094421 Eh       0.59 kcal/mol
-----------------------------------------------------------------------
Total Enthalpy                    ...   -229.34862548 Eh


Note: Only C1 symmetry has been detected, increase convergence thresholds 
      if your molecule has a higher symmetry. Symmetry factor of 1.0 is   
      used for the rotational entropy correction. 
 

Note: Rotational entropy computed according to Herzberg 
Infrared and Raman Spectra, Chapter V,1, Van Nostrand Reinhold, 1945 
Point Group:  C1, Symmetry Number:   1  
Rotational constants in cm-1:     0.237021     0.233690     0.120521 

Vibrational entropy computed according to the QRRHO of S. Grimme
Chem.Eur.J. 2012 18 9955


-------
ENTROPY
-------

The entropy contributions are T*S = T*(S(el)+S(vib)+S(rot)+S(trans))
     S(el)   - electronic entropy
     S(vib)  - vibrational entropy
     S(rot)  - rotational entropy
     S(trans)- translational entropy
The entropies will be listed as mutliplied by the temperature to get
units of energy

Electronic entropy                ...      0.00000000 Eh      0.00 kcal/mol
Vibrational entropy               ...      0.00696561 Eh      4.37 kcal/mol
Rotational entropy                ...      0.01187565 Eh      7.45 kcal/mol
Translational entropy             ...      0.01799974 Eh     11.29 kcal/mol
-----------------------------------------------------------------------
Final entropy term                ...      0.03684100 Eh     23.12 kcal/mol

In case the symmetry of your molecule has not been determined correctly
or in case you have a reason to use a different symmetry number we print 
out the resulting rotational entropy values for sn=1,12 :
 --------------------------------------------------------
|  sn= 1 | S(rot)=       0.01187565 Eh      7.45 kcal/mol|
|  sn= 2 | S(rot)=       0.01122120 Eh      7.04 kcal/mol|
|  sn= 3 | S(rot)=       0.01083837 Eh      6.80 kcal/mol|
|  sn= 4 | S(rot)=       0.01056674 Eh      6.63 kcal/mol|
|  sn= 5 | S(rot)=       0.01035605 Eh      6.50 kcal/mol|
|  sn= 6 | S(rot)=       0.01018391 Eh      6.39 kcal/mol|
|  sn= 7 | S(rot)=       0.01003836 Eh      6.30 kcal/mol|
|  sn= 8 | S(rot)=       0.00991229 Eh      6.22 kcal/mol|
|  sn= 9 | S(rot)=       0.00980108 Eh      6.15 kcal/mol|
|  sn=10 | S(rot)=       0.00970160 Eh      6.09 kcal/mol|
|  sn=11 | S(rot)=       0.00961161 Eh      6.03 kcal/mol|
|  sn=12 | S(rot)=       0.00952945 Eh      5.98 kcal/mol|
 --------------------------------------------------------


-------------------
GIBBS FREE ENERGY
-------------------

The Gibbs free energy is G = H - T*S

Total enthalpy                    ...   -229.34862548 Eh 
Total entropy correction          ...     -0.03684100 Eh    -23.12 kcal/mol
-----------------------------------------------------------------------
Final Gibbs free energy         ...   -229.38546648 Eh

For completeness - the Gibbs free energy minus the electronic energy
G-E(el)                           ...      0.04261060 Eh     26.74 kcal/mol


Total Time for Numerical Frequencies  :       110.296 sec

Timings for individual modules:

Sum of individual times         ...       73.861 sec (=   1.231 min)
GTO integral calculation        ...       10.854 sec (=   0.181 min)  14.7 %
SCF iterations                  ...       39.882 sec (=   0.665 min)  54.0 %
SCF Gradient evaluation         ...       22.092 sec (=   0.368 min)  29.9 %
Geometry relaxation             ...        1.034 sec (=   0.017 min)   1.4 %
                             ****ORCA TERMINATED NORMALLY****
TOTAL RUN TIME: 0 days 0 hours 3 minutes 3 seconds 260 msec
