
                                 *****************
                                 * O   R   C   A *
                                 *****************

           --- An Ab Initio, DFT and Semiempirical electronic structure package ---

                  #######################################################
                  #                        -***-                        #
                  #          Department of theory and spectroscopy      #
                  #               Directorship: Frank Neese             #
                  #        Max Planck Institute fuer Kohlenforschung    #
                  #                Kaiser Wilhelm Platz 1               #
                  #                 D-45470 Muelheim/Ruhr               #
                  #                      Germany                        #
                  #                                                     #
                  #                  All rights reserved                #
                  #                        -***-                        #
                  #######################################################


                         Program Version 4.2.0 -  RELEASE  -


 With contributions from (in alphabetic order):
   Daniel Aravena         : Magnetic Suceptibility
   Michael Atanasov       : Ab Initio Ligand Field Theory (pilot matlab implementation)
   Alexander A. Auer      : GIAO ZORA, VPT2
   Ute Becker             : Parallelization
   Giovanni Bistoni       : ED, misc. LED, open-shell LED, HFLED
   Martin Brehm           : Molecular dynamics
   Dmytro Bykov           : SCF Hessian
   Vijay G. Chilkuri      : MRCI spin determinant printing, contributions to CSF-ICE
   Dipayan Datta          : RHF DLPNO-CCSD density
   Achintya Kumar Dutta   : EOM-CC, STEOM-CC
   Dmitry Ganyushin       : Spin-Orbit,Spin-Spin,Magnetic field MRCI
   Miquel Garcia          : C-PCM Hessian, Gaussian charge scheme
   Yang Guo               : DLPNO-NEVPT2, CIM, IAO-localization
   Andreas Hansen         : Spin unrestricted coupled pair/coupled cluster methods
   Benjamin Helmich-Paris : CASSCF linear response (MC-RPA)
   Lee Huntington         : MR-EOM, pCC
   Robert Izsak           : Overlap fitted RIJCOSX, COSX-SCS-MP3, EOM
   Christian Kollmar      : KDIIS, OOCD, Brueckner-CCSD(T), CCSD density
   Simone Kossmann        : Meta GGA functionals, TD-DFT gradient, OOMP2, MP2 Hessian
   Martin Krupicka        : AUTO-CI
   Lucas Lang             : DCDCAS
   Dagmar Lenk            : GEPOL surface, SMD
   Dimitrios Liakos       : Extrapolation schemes; Compound Job, initial MDCI parallelization
   Dimitrios Manganas     : Further ROCIS development; embedding schemes
   Dimitrios Pantazis     : SARC Basis sets
   Taras Petrenko         : DFT Hessian,TD-DFT gradient, ASA, ECA, R-Raman, ABS, FL, XAS/XES, NRVS
   Peter Pinski           : DLPNO-MP2, DLPNO-MP2 Gradient
   Christoph Reimann      : Effective Core Potentials
   Marius Retegan         : Local ZFS, SOC
   Christoph Riplinger    : Optimizer, TS searches, QM/MM, DLPNO-CCSD(T), (RO)-DLPNO pert. Triples
   Tobias Risthaus        : Range-separated hybrids, TD-DFT gradient, RPA, STAB
   Michael Roemelt        : Original ROCIS implementation
   Masaaki Saitow         : Open-shell DLPNO-CCSD energy and density
   Barbara Sandhoefer     : DKH picture change effects
   Avijit Sen             : IP-ROCIS
   Kantharuban Sivalingam : CASSCF convergence, NEVPT2, FIC-MRCI
   Bernardo de Souza      : ESD, SOC TD-DFT
   Georgi Stoychev        : AutoAux, RI-MP2 NMR
   Willem Van den Heuvel  : Paramagnetic NMR
   Boris Wezisla          : Elementary symmetry handling
   Frank Wennmohs         : Technical directorship


 We gratefully acknowledge several colleagues who have allowed us to
 interface, adapt or use parts of their codes:
   Stefan Grimme, W. Hujo, H. Kruse,             : VdW corrections, initial TS optimization,
                  C. Bannwarth                     DFT functionals, gCP, sTDA/sTD-DF
   Ed Valeev, F. Pavosevic, A. Kumar             : LibInt (2-el integral package), F12 methods
   Garnet Chan, S. Sharma, J. Yang, R. Olivares  : DMRG
   Ulf Ekstrom                                   : XCFun DFT Library
   Mihaly Kallay                                 : mrcc  (arbitrary order and MRCC methods)
   Andreas Klamt, Michael Diedenhofen            : otool_cosmo (COSMO solvation model)
   Jiri Pittner, Ondrej Demel                    : Mk-CCSD
   Frank Weinhold                                : gennbo (NPA and NBO analysis)
   Christopher J. Cramer and Donald G. Truhlar   : smd solvation model
   Lars Goerigk                                  : TD-DFT with DH, B97 family of functionals
   V. Asgeirsson, H. Jonsson                     : NEB implementation
   FAccTs GmbH                                   : IRC, NEB, NEB-TS, Multilevel, MM, QM/MM, CI optimization
   S Lehtola, MJT Oliveira, MAL Marques          : LibXC Library


 Your calculation uses the libint2 library for the computation of 2-el integrals
 For citations please refer to: http://libint.valeyev.net

 Your ORCA version has been built with support for libXC version: 4.2.3
 For citations please refer to: https://tddft.org/programs/libxc/

 This ORCA versions uses:
   CBLAS   interface :  Fast vector & matrix operations
   LAPACKE interface :  Fast linear algebra routines
   SCALAPACK package :  Parallel linear algebra routines


Your calculation utilizes the atom-pairwise dispersion correction
with the Becke-Johnson damping scheme (D3BJ)
Cite in your paper:
S.Grimme, S.Ehrlich, L.Goerigk, J Comput Chem, (2011), 32, 1456–1465 
S.Grimme, J.Antony, S.Ehrlich and H.Krieg, J.Chem.Phys., 132, (2010), 154104 
   

----- Orbital basis set information -----
Your calculation utilizes the basis: aug-cc-pV(T+d)Z 
             Al - Ar: T.H. Dunning, Jr., K. A. Peterson and A. K. Wilson, J. Chem. Phys.
                      114, 9244 (2001)

----- AuxJ basis set information -----
Your calculation utilizes the auxiliary basis: def2/J
   F. Weigend, Phys. Chem. Chem. Phys. 8, 1057 (2006).

================================================================================
                                        WARNINGS
                       Please study these warnings very carefully!
================================================================================


WARNING: Geometry Optimization
  ===> : Switching off AutoStart
         For restart on a previous wavefunction, please use MOREAD

INFO   : the flag for use of LIBINT has been found!

================================================================================
                                       INPUT FILE
================================================================================
NAME = 04_H2O_4.in
|  1> #
|  2> # 04_H2O_4 tpss/aug-cc-pvt(+d)z
|  3> #
|  4> ! tpss d3bj aug-cc-pvt(+d)z def2/j grid4 nofinalgrid opt xyzfile numfreq
|  5> 
|  6> *xyz 0 1
|  7> O	1.372659		-1.372658	0.015734
|  8> H	0.406261		-1.511316	-0.008945
|  9> H	1.683553		-1.872433	0.772059
| 10> O	-1.372658		-1.372658	-0.015734
| 11> H	-1.511316		-0.406261	0.008945
| 12> H	-1.872433		-1.683553	-0.772059
| 13> O	-1.372658		1.372659	0.015734
| 14> H	-0.406261		1.511317	-0.008945
| 15> H	-1.683553		1.872433	0.772059
| 16> O	1.372659		1.372659	-0.015734
| 17> H	1.511317		0.406261	0.008945
| 18> H	1.872433		1.683553	-0.772059
| 19> *
| 20> 
| 21> %maxcore 5000
| 22> 
| 23> %pal
| 24> nprocs 24
| 25> end
| 26> 
| 27> 
| 28>                          ****END OF INPUT****
================================================================================

                       *****************************
                       * Geometry Optimization Run *
                       *****************************

Geometry optimization settings:
Update method            Update   .... BFGS
Choice of coordinates    CoordSys .... Z-matrix Internals
Initial Hessian          InHess   .... Almoef's Model

Convergence Tolerances:
Energy Change            TolE     ....  5.0000e-06 Eh
Max. Gradient            TolMAXG  ....  3.0000e-04 Eh/bohr
RMS Gradient             TolRMSG  ....  1.0000e-04 Eh/bohr
Max. Displacement        TolMAXD  ....  4.0000e-03 bohr
RMS Displacement         TolRMSD  ....  2.0000e-03 bohr
Strict Convergence                ....  False
------------------------------------------------------------------------------
                        ORCA OPTIMIZATION COORDINATE SETUP
------------------------------------------------------------------------------

The optimization will be done in new redundant internal coordinates
Making redundant internal coordinates   ...  (new redundants) done
Evaluating the initial hessian          ...  (Almloef) done
Evaluating the coordinates              ...  done
Calculating the B-matrix                .... done
Calculating the G-matrix                .... done
Diagonalizing the G-matrix              .... done
The first mode is                       ....   94
The number of degrees of freedom        ....   30

    -----------------------------------------------------------------
                    Redundant Internal Coordinates


    -----------------------------------------------------------------
         Definition                    Initial Value    Approx d2E/dq
    -----------------------------------------------------------------
      1. B(H   1,O   0)                  0.9766         0.489184   
      2. B(H   2,O   0)                  0.9584         0.523094   
      3. B(O   3,H   1)                  1.7843         0.025165   
      4. B(H   4,H   1)                  2.2133         0.001113   
      5. B(H   4,O   3)                  0.9766         0.489186   
      6. B(H   5,O   3)                  0.9584         0.523094   
      7. B(O   6,H   4)                  1.7843         0.025165   
      8. B(H   7,O   6)                  0.9766         0.489186   
      9. B(H   7,H   4)                  2.2133         0.001113   
     10. B(H   8,O   6)                  0.9584         0.523095   
     11. B(O   9,H   7)                  1.7843         0.025165   
     12. B(H  10,O   9)                  0.9766         0.489184   
     13. B(H  10,H   1)                  2.2133         0.001113   
     14. B(H  10,O   0)                  1.7843         0.025165   
     15. B(H  10,H   7)                  2.2133         0.001113   
     16. B(H  11,O   9)                  0.9584         0.523095   
     17. A(H   1,O   0,H  10)          102.6121         0.204712   
     18. A(H   2,O   0,H  10)          119.8481         0.206481   
     19. A(H   1,O   0,H   2)          105.4806         0.318954   
     20. A(O   0,H   1,O   3)          167.3198         0.204712   
     21. A(O   0,H   1,H  10)           51.8821         0.135215   
     22. A(O   0,H   1,H   4)          141.8365         0.135215   
     23. A(H   4,H   1,H  10)           89.9963         0.098430   
     24. A(O   3,H   1,H   4)           25.5058         0.112611   
     25. A(O   3,H   1,H  10)          115.4978         0.112611   
     26. A(H   1,O   3,H   4)          102.6121         0.204712   
     27. A(H   4,O   3,H   5)          105.4807         0.318954   
     28. A(H   1,O   3,H   5)          119.8481         0.206481   
     29. A(O   3,H   4,H   7)          141.8365         0.135215   
     30. A(O   6,H   4,H   7)           25.5058         0.112611   
     31. A(H   1,H   4,H   7)           89.9963         0.098430   
     32. A(H   1,H   4,O   6)          115.4978         0.112611   
     33. A(O   3,H   4,O   6)          167.3198         0.204712   
     34. A(H   1,H   4,O   3)           51.8821         0.135215   
     35. A(H   7,O   6,H   8)          105.4807         0.318954   
     36. A(H   4,O   6,H   8)          119.8480         0.206481   
     37. A(H   4,O   6,H   7)          102.6121         0.204712   
     38. A(H   4,H   7,O   9)          115.4978         0.112611   
     39. A(O   6,H   7,O   9)          167.3198         0.204712   
     40. A(H   4,H   7,O   6)           51.8821         0.135215   
     41. A(O   9,H   7,H  10)           25.5058         0.112611   
     42. A(H   4,H   7,H  10)           89.9962         0.098430   
     43. A(O   6,H   7,H  10)          141.8365         0.135215   
     44. A(H   7,O   9,H  11)          119.8480         0.206481   
     45. A(H   7,O   9,H  10)          102.6121         0.204712   
     46. A(H  10,O   9,H  11)          105.4807         0.318954   
     47. A(O   0,H  10,O   9)          167.3198         0.204712   
     48. A(O   0,H  10,H   1)           25.5058         0.112611   
     49. A(H   1,H  10,O   9)          141.8365         0.135215   
     50. A(H   1,H  10,H   7)           89.9962         0.098430   
     51. A(O   0,H  10,H   7)          115.4978         0.112611   
     52. A(H   7,H  10,O   9)           51.8821         0.135215   
     53. D(H  10,H   1,O   0,H   2)    126.2406         0.357621   
     54. D(O   3,H   1,O   0,H   2)    120.2411         0.357621   
     55. D(H   4,H   1,O   0,H   2)    123.0995         0.357621   
     56. D(O   3,H   1,O   0,H  10)     -5.9995         0.357621   
     57. D(H   4,H   1,O   0,H  10)     -3.1411         0.357621   
     58. D(H   4,O   3,H   1,O   0)      4.1036         0.001912   
     59. D(H   4,O   3,H   1,H  10)     -1.1235         0.001912   
     60. D(H   5,O   3,H   1,H   4)    116.3425         0.001912   
     61. D(H   5,O   3,H   1,O   0)    120.4460         0.001912   
     62. D(H   5,O   3,H   1,H  10)    115.2190         0.001912   
     63. D(O   6,H   4,H   1,O   3)   -178.5435         0.001515   
     64. D(O   3,H   4,H   1,H  10)    178.9859         0.001515   
     65. D(O   6,H   4,H   1,H  10)      0.4425         0.001515   
     66. D(O   6,H   4,H   1,O   0)      2.9132         0.001515   
     67. D(H   7,H   4,O   3,H   1)      3.1411         0.357624   
     68. D(O   6,H   4,O   3,H   1)      5.9995         0.357624   
     69. D(O   6,H   4,O   3,H   5)   -120.2411         0.357624   
     70. D(H   1,H   4,O   3,H   5)   -126.2406         0.357624   
     71. D(H   7,H   4,H   1,O   3)   -178.0597         0.001515   
     72. D(H   7,H   4,H   1,H  10)      0.9262         0.001515   
     73. D(H   7,H   4,O   3,H   5)   -123.0995         0.357624   
     74. D(O   3,H   4,H   1,O   0)   -178.5433         0.001515   
     75. D(H   7,H   4,H   1,O   0)      3.3970         0.001515   
     76. D(H   8,O   6,H   4,H   1)   -115.2189         0.001912   
     77. D(H   8,O   6,H   4,H   7)   -116.3425         0.001912   
     78. D(H   8,O   6,H   4,O   3)   -120.4460         0.001912   
     79. D(H   7,O   6,H   4,H   1)      1.1235         0.001912   
     80. D(H   7,O   6,H   4,O   3)     -4.1036         0.001912   
     81. D(O   6,H   7,H   4,O   3)    178.5433         0.001515   
     82. D(O   6,H   7,H   4,H   1)   -178.9859         0.001515   
     83. D(O   9,H   7,H   4,O   3)     -2.9132         0.001515   
     84. D(H  10,H   7,O   6,H   4)     -3.1411         0.357624   
     85. D(H  10,H   7,O   6,H   8)    123.0994         0.357624   
     86. D(O   9,H   7,O   6,H   8)    120.2410         0.357624   
     87. D(H   4,H   7,O   6,H   8)    126.2405         0.357624   
     88. D(H  10,H   7,H   4,O   6)    178.0597         0.001515   
     89. D(H  10,H   7,H   4,H   1)     -0.9262         0.001515   
     90. D(O   9,H   7,O   6,H   4)     -5.9995         0.357624   
     91. D(H  10,H   7,H   4,O   3)     -3.3970         0.001515   
     92. D(O   9,H   7,H   4,O   6)    178.5435         0.001515   
     93. D(O   9,H   7,H   4,H   1)     -0.4425         0.001515   
     94. D(H  11,O   9,H   7,H  10)    116.3424         0.001912   
     95. D(H  11,O   9,H   7,H   4)    115.2189         0.001912   
     96. D(H  11,O   9,H   7,O   6)    120.4460         0.001912   
     97. D(H  10,O   9,H   7,H   4)     -1.1235         0.001912   
     98. D(H  10,O   9,H   7,O   6)      4.1036         0.001912   
     99. D(O   0,H  10,H   7,O   6)      2.9132         0.001515   
    100. D(O   9,H  10,H   7,H   4)    178.9859         0.001515   
    101. D(O   9,H  10,H   7,O   6)   -178.5433         0.001515   
    102. D(H   7,H  10,H   1,O   3)     -0.4425         0.001515   
    103. D(H   7,H  10,H   1,O   0)   -178.9859         0.001515   
    104. D(O   0,H  10,H   1,H   4)    178.0597         0.001515   
    105. D(O   0,H  10,H   1,O   3)    178.5435         0.001515   
    106. D(O   9,H  10,H   1,H   4)     -3.3970         0.001515   
    107. D(O   9,H  10,H   1,O   3)     -2.9132         0.001515   
    108. D(O   9,H  10,H   1,O   0)    178.5433         0.001515   
    109. D(H   7,H  10,O   0,H   2)   -115.2189         0.001912   
    110. D(H   7,H  10,H   1,H   4)     -0.9262         0.001515   
    111. D(H   7,H  10,O   0,H   1)      1.1235         0.001912   
    112. D(H   1,H  10,O   0,H   2)   -116.3424         0.001912   
    113. D(O   9,H  10,O   0,H   2)   -120.4460         0.001912   
    114. D(O   0,H  10,H   7,H   4)      0.4425         0.001515   
    115. D(O   9,H  10,O   0,H   1)     -4.1036         0.001912   
    116. D(H   7,H  10,O   9,H  11)   -126.2405         0.357621   
    117. D(H   1,H  10,O   9,H  11)   -123.0994         0.357621   
    118. D(O   0,H  10,O   9,H   7)      5.9995         0.357621   
    119. D(O   0,H  10,O   9,H  11)   -120.2410         0.357621   
    120. D(H   1,H  10,H   7,O   9)   -178.0597         0.001515   
    121. D(H   1,H  10,H   7,H   4)      0.9262         0.001515   
    122. D(H   1,H  10,O   9,H   7)      3.1411         0.357621   
    123. D(H   1,H  10,H   7,O   6)      3.3970         0.001515   
    124. D(O   0,H  10,H   7,O   9)   -178.5435         0.001515   
    -----------------------------------------------------------------

Number of atoms                         .... 12
Number of degrees of freedom            .... 124

         *************************************************************
         *                GEOMETRY OPTIMIZATION CYCLE   1            *
         *************************************************************
---------------------------------
CARTESIAN COORDINATES (ANGSTROEM)
---------------------------------
  O      1.372659   -1.372658    0.015734
  H      0.406261   -1.511316   -0.008945
  H      1.683553   -1.872433    0.772059
  O     -1.372658   -1.372658   -0.015734
  H     -1.511316   -0.406261    0.008945
  H     -1.872433   -1.683553   -0.772059
  O     -1.372658    1.372659    0.015734
  H     -0.406261    1.511317   -0.008945
  H     -1.683553    1.872433    0.772059
  O      1.372659    1.372659   -0.015734
  H      1.511317    0.406261    0.008945
  H      1.872433    1.683553   -0.772059

----------------------------
CARTESIAN COORDINATES (A.U.)
----------------------------
  NO LB      ZA    FRAG     MASS         X           Y           Z
   0 O     8.0000    0    15.999    2.593950   -2.593948    0.029733
   1 H     1.0000    0     1.008    0.767722   -2.855973   -0.016904
   2 H     1.0000    0     1.008    3.181454   -3.538386    1.458980
   3 O     8.0000    0    15.999   -2.593948   -2.593948   -0.029733
   4 H     1.0000    0     1.008   -2.855973   -0.767722    0.016904
   5 H     1.0000    0     1.008   -3.538386   -3.181454   -1.458980
   6 O     8.0000    0    15.999   -2.593948    2.593950    0.029733
   7 H     1.0000    0     1.008   -0.767722    2.855975   -0.016904
   8 H     1.0000    0     1.008   -3.181454    3.538386    1.458980
   9 O     8.0000    0    15.999    2.593950    2.593950   -0.029733
  10 H     1.0000    0     1.008    2.855975    0.767722    0.016904
  11 H     1.0000    0     1.008    3.538386    3.181454   -1.458980

--------------------------------
INTERNAL COORDINATES (ANGSTROEM)
--------------------------------
 O      0   0   0     0.000000000000     0.00000000     0.00000000
 H      1   0   0     0.976606465476     0.00000000     0.00000000
 H      1   2   0     0.958361954319   105.48063347     0.00000000
 O      2   1   3     1.784327587649   167.31984179   120.24107791
 H      4   2   1     0.976605475929   102.61211353     4.10356285
 H      4   2   1     0.958362278721   119.84805779   120.44602620
 O      5   4   2     1.784328584618   167.31983583     5.99948704
 H      7   5   4     0.976605475929   102.61211104   355.89643243
 H      7   5   4     0.958361757233   119.84800790   239.55397543
 O      8   7   5     1.784328584618   167.31983583   354.00051315
 H     10   8   7     0.976606465476   102.61210273     4.10356916
 H     10   8   7     0.958361432831   119.84802438   120.44596220

---------------------------
INTERNAL COORDINATES (A.U.)
---------------------------
 O      0   0   0     0.000000000000     0.00000000     0.00000000
 H      1   0   0     1.845518760366     0.00000000     0.00000000
 H      1   2   0     1.811041630832   105.48063347     0.00000000
 O      2   1   3     3.371890473857   167.31984179   120.24107791
 H      4   2   1     1.845516890393   102.61211353     4.10356285
 H      4   2   1     1.811042243863   119.84805779   120.44602620
 O      5   4   2     3.371892357855   167.31983583     5.99948704
 H      7   5   4     1.845516890393   102.61211104   355.89643243
 H      7   5   4     1.811041258393   119.84800790   239.55397543
 O      8   7   5     3.371892357855   167.31983583   354.00051315
 H     10   8   7     1.845518760366   102.61210273     4.10356916
 H     10   8   7     1.811040645362   119.84802438   120.44596220

---------------------
BASIS SET INFORMATION
---------------------
There are 2 groups of distinct atoms

 Group   1 Type O   : 19s6p3d2f contracted to 5s4p3d2f pattern {88111/3111/111/11}
 Group   2 Type H   : 6s3p2d contracted to 4s3p2d pattern {3111/111/11}

Atom   0O    basis set group =>   1
Atom   1H    basis set group =>   2
Atom   2H    basis set group =>   2
Atom   3O    basis set group =>   1
Atom   4H    basis set group =>   2
Atom   5H    basis set group =>   2
Atom   6O    basis set group =>   1
Atom   7H    basis set group =>   2
Atom   8H    basis set group =>   2
Atom   9O    basis set group =>   1
Atom  10H    basis set group =>   2
Atom  11H    basis set group =>   2
---------------------------------
AUXILIARY/J BASIS SET INFORMATION
---------------------------------
There are 2 groups of distinct atoms

 Group   1 Type O   : 12s5p4d2f1g contracted to 6s4p3d1f1g pattern {711111/2111/211/2/1}
 Group   2 Type H   : 5s2p1d contracted to 3s1p1d pattern {311/2/1}

Atom   0O    basis set group =>   1
Atom   1H    basis set group =>   2
Atom   2H    basis set group =>   2
Atom   3O    basis set group =>   1
Atom   4H    basis set group =>   2
Atom   5H    basis set group =>   2
Atom   6O    basis set group =>   1
Atom   7H    basis set group =>   2
Atom   8H    basis set group =>   2
Atom   9O    basis set group =>   1
Atom  10H    basis set group =>   2
Atom  11H    basis set group =>   2


           ************************************************************
           *        Program running with 24 parallel MPI-processes    *
           *              working on a common directory               *
           ************************************************************
------------------------------------------------------------------------------
                           ORCA GTO INTEGRAL CALCULATION
                           -- RI-GTO INTEGRALS CHOSEN --
------------------------------------------------------------------------------

                         BASIS SET STATISTICS AND STARTUP INFO

Gaussian basis set:
 # of primitive gaussian shells          ...  208
 # of primitive gaussian functions       ...  464
 # of contracted shells                  ...  128
 # of contracted basis functions         ...  368
 Highest angular momentum                ...    3
 Maximum contraction depth               ...    8
Auxiliary gaussian basis set:
 # of primitive gaussian shells          ...  160
 # of primitive gaussian functions       ...  408
 # of contracted shells                  ...  100
 # of contracted aux-basis functions     ...  284
 Highest angular momentum                ...    4
 Maximum contraction depth               ...    7
Ratio of auxiliary to basis functions    ...  0.77
Integral package used                  ... LIBINT
 One Electron integrals                  ... done
 Ordering auxiliary basis shells         ... done
 Integral threshhold             Thresh  ...  2.500e-11
 Primitive cut-off               TCut    ...  2.500e-12
 Pre-screening matrix                    ... done
 Shell pair data                         ... 
 Ordering of the shell pairs             ... done (   0.002 sec) 8012 of 8256 pairs
 Determination of significant pairs      ... done (   0.000 sec)
 Creation of shell pair data             ... done (   0.001 sec)
 Storage of shell pair data              ... done (   0.049 sec)
 Shell pair data done in (   0.052 sec)
 Computing two index integrals           ... done
 Cholesky decomposition of the V-matrix  ... done


Timings:
 Total evaluation time                   ...   0.379 sec (  0.006 min)
 One electron matrix time                ...   0.072 sec (  0.001 min) = 19.0%
 Schwartz matrix evaluation time         ...   0.160 sec (  0.003 min) = 42.1%
 Two index repulsion integral time       ...   0.002 sec (  0.000 min) =  0.5%
 Cholesky decomposition of V             ...   0.075 sec (  0.001 min) = 19.8%
 Three index repulsion integral time     ...   0.000 sec (  0.000 min) =  0.0%



           ************************************************************
           *        Program running with 24 parallel MPI-processes    *
           *              working on a common directory               *
           ************************************************************
-------------------------------------------------------------------------------
                                 ORCA SCF
-------------------------------------------------------------------------------

------------
SCF SETTINGS
------------
Hamiltonian:
 Density Functional     Method          .... DFT(GTOs)
 Exchange Functional    Exchange        .... TPSS
 Correlation Functional Correlation     .... TPSS
 LDA part of GGA corr.  LDAOpt          .... PW91-LDA
 Gradients option       PostSCFGGA      .... off
   Density functional embedding theory  .... OFF
   NL short-range parameter             ....  5.000000
 RI-approximation to the Coulomb term is turned on
   Number of auxiliary basis functions  .... 284


General Settings:
 Integral files         IntName         .... 04_H2O_4
 Hartree-Fock type      HFTyp           .... RHF
 Total Charge           Charge          ....    0
 Multiplicity           Mult            ....    1
 Number of Electrons    NEL             ....   40
 Basis Dimension        Dim             ....  368
 Nuclear Repulsion      ENuc            ....    141.3596395251 Eh

Convergence Acceleration:
 DIIS                   CNVDIIS         .... on
   Start iteration      DIISMaxIt       ....    12
   Startup error        DIISStart       ....  0.200000
   # of expansion vecs  DIISMaxEq       ....     5
   Bias factor          DIISBfac        ....   1.050
   Max. coefficient     DIISMaxC        ....  10.000
 Newton-Raphson         CNVNR           .... off
 SOSCF                  CNVSOSCF        .... on
   Start iteration      SOSCFMaxIt      ....   150
   Startup grad/error   SOSCFStart      ....  0.003300
 Level Shifting         CNVShift        .... on
   Level shift para.    LevelShift      ....    0.2500
   Turn off err/grad.   ShiftErr        ....    0.0010
 Zerner damping         CNVZerner       .... off
 Static damping         CNVDamp         .... on
   Fraction old density DampFac         ....    0.7000
   Max. Damping (<1)    DampMax         ....    0.9800
   Min. Damping (>=0)   DampMin         ....    0.0000
   Turn off err/grad.   DampErr         ....    0.1000
 Fernandez-Rico         CNVRico         .... off

SCF Procedure:
 Maximum # iterations   MaxIter         ....   125
 SCF integral mode      SCFMode         .... Direct
   Integral package                     .... LIBINT
 Reset frequency        DirectResetFreq ....    20
 Integral Threshold     Thresh          ....  2.500e-11 Eh
 Primitive CutOff       TCut            ....  2.500e-12 Eh

Convergence Tolerance:
 Convergence Check Mode ConvCheckMode   .... Total+1el-Energy
 Convergence forced     ConvForced      .... 0
 Energy Change          TolE            ....  1.000e-08 Eh
 1-El. energy change                    ....  1.000e-05 Eh
 Orbital Gradient       TolG            ....  1.000e-05
 Orbital Rotation angle TolX            ....  1.000e-05
 DIIS Error             TolErr          ....  5.000e-07


Diagonalization of the overlap matrix:
Smallest eigenvalue                        ... 1.138e-04
Time for diagonalization                   ...    0.034 sec
Threshold for overlap eigenvalues          ... 1.000e-08
Number of eigenvalues below threshold      ... 0
Time for construction of square roots      ...    0.016 sec
Total time needed                          ...    0.051 sec

-------------------
DFT GRID GENERATION
-------------------

General Integration Accuracy     IntAcc      ...  4.670
Radial Grid Type                 RadialGrid  ... Gauss-Chebyshev
Angular Grid (max. acc.)         AngularGrid ... Lebedev-302
Angular grid pruning method      GridPruning ... 3 (G Style)
Weight generation scheme         WeightScheme... Becke
Basis function cutoff            BFCut       ...    1.0000e-11
Integration weight cutoff        WCut        ...    1.0000e-14
Grids for H and He will be reduced by one unit

# of grid points (after initial pruning)     ...  52000 (   0.0 sec)
# of grid points (after weights+screening)   ...  49024 (   0.0 sec)
nearest neighbour list constructed           ...    0.0 sec
Grid point re-assignment to atoms done       ...    0.0 sec
Grid point division into batches done        ...    0.2 sec
Reduced shell lists constructed in    0.2 sec

Total number of grid points                  ...    49024
Total number of batches                      ...      772
Average number of points per batch           ...       63
Average number of grid points per atom       ...     4085
Average number of shells per batch           ...    89.65 (70.04%)
Average number of basis functions per batch  ...   249.24 (67.73%)
Average number of large shells per batch     ...    73.50 (81.99%)
Average number of large basis fcns per batch ...   199.44 (80.02%)
Maximum spatial batch extension              ...  14.21, 10.44, 11.53 au
Average spatial batch extension              ...   0.12,  0.10,  0.12 au

Time for grid setup =    0.272 sec

------------------------------
INITIAL GUESS: MODEL POTENTIAL
------------------------------
Loading Hartree-Fock densities                     ... done
Calculating cut-offs                               ... done
Setting up the integral package                    ... done
Initializing the effective Hamiltonian             ... done
Starting the Coulomb interaction                   ... done (   0.0 sec)
Reading the grid                                   ... done
Mapping shells                                     ... done
Starting the XC term evaluation                    ... done (   0.1 sec)
  promolecular density results
     # of electrons  =     39.996233363
     EX              =    -34.966055015
     EC              =     -1.292478975
     EX+EC           =    -36.258533990
Transforming the Hamiltonian                       ... done (   0.0 sec)
Diagonalizing the Hamiltonian                      ... done (   0.0 sec)
Back transforming the eigenvectors                 ... done (   0.0 sec)
Now organizing SCF variables                       ... done
                      ------------------
                      INITIAL GUESS DONE (   0.5 sec)
                      ------------------
--------------
SCF ITERATIONS
--------------
ITER       Energy         Delta-E        Max-DP      RMS-DP      [F,P]     Damp
               ***  Starting incremental Fock matrix formation  ***
  0   -305.6043626117   0.000000000000 0.07990590  0.00117562  0.3146781 0.7000
  1   -305.7624192813  -0.158056669601 0.03825168  0.00065206  0.1111985 0.7000
                               ***Turning on DIIS***
  2   -305.8057152428  -0.043295961569 0.04852944  0.00075388  0.0250768 0.0000
  3   -305.8940862420  -0.088370999182 0.01440349  0.00030379  0.0648132 0.0000
  4   -305.9083247021  -0.014238460070 0.00304332  0.00007655  0.0119914 0.0000
                      *** Initiating the SOSCF procedure ***
                           *** Shutting down DIIS ***
                      *** Re-Reading the Fockian *** 
                      *** Removing any level shift *** 
ITER      Energy       Delta-E        Grad      Rot      Max-DP    RMS-DP
  5   -305.90908420  -0.0007594956  0.000884  0.000884  0.001649  0.000039
               *** Restarting incremental Fock matrix formation ***
  6   -305.90913276  -0.0000485595  0.000430  0.001306  0.002294  0.000046
  7   -305.90913386  -0.0000011000  0.000364  0.000203  0.000790  0.000015
  8   -305.90913957  -0.0000057133  0.000082  0.000238  0.000627  0.000012
  9   -305.90913992  -0.0000003470  0.000021  0.000056  0.000108  0.000002
 10   -305.90913994  -0.0000000267  0.000004  0.000004  0.000011  0.000000
                  ***Gradient check signals convergence***
              ***Rediagonalizing the Fockian in SOSCF/NRSCF***

               *****************************************************
               *                     SUCCESS                       *
               *           SCF CONVERGED AFTER  11 CYCLES          *
               *****************************************************


----------------
TOTAL SCF ENERGY
----------------

Total Energy       :         -305.90913995 Eh           -8324.21089 eV

Components:
Nuclear Repulsion  :          141.35963953 Eh            3846.59135 eV
Electronic Energy  :         -447.26877948 Eh          -12170.80224 eV
One Electron Energy:         -701.45383701 Eh          -19087.52930 eV
Two Electron Energy:          254.18505753 Eh            6916.72706 eV

Virial components:
Potential Energy   :         -610.40700772 Eh          -16610.01912 eV
Kinetic Energy     :          304.49786777 Eh            8285.80822 eV
Virial Ratio       :            2.00463475


DFT components:
N(Alpha)           :       20.000070849875 electrons
N(Beta)            :       20.000070849875 electrons
N(Total)           :       40.000141699749 electrons
E(X)               :      -36.061358456964 Eh       
E(C)               :       -1.327797151395 Eh       
E(XC)              :      -37.389155608359 Eh       
DFET-embed. en.    :        0.000000000000 Eh       

---------------
SCF CONVERGENCE
---------------

  Last Energy change         ...   -7.7123e-09  Tolerance :   1.0000e-08
  Last MAX-Density change    ...    6.4454e-06  Tolerance :   1.0000e-07
  Last RMS-Density change    ...    1.3326e-07  Tolerance :   5.0000e-09
  Last Orbital Gradient      ...    1.6252e-06  Tolerance :   1.0000e-05
  Last Orbital Rotation      ...    3.0710e-06  Tolerance :   1.0000e-05

             **** THE GBW FILE WAS UPDATED (04_H2O_4.gbw) ****
             **** DENSITY FILE WAS UPDATED (04_H2O_4.scfp) ****
             **** ENERGY FILE WAS UPDATED (04_H2O_4.en.tmp) ****
             **** THE GBW FILE WAS UPDATED (04_H2O_4.gbw) ****
             **** DENSITY FILE WAS UPDATED (04_H2O_4.scfp) ****
----------------
ORBITAL ENERGIES
----------------

  NO   OCC          E(Eh)            E(eV) 
   0   2.0000     -18.884339      -513.8690 
   1   2.0000     -18.884337      -513.8689 
   2   2.0000     -18.884336      -513.8689 
   3   2.0000     -18.884334      -513.8688 
   4   2.0000      -0.958706       -26.0877 
   5   2.0000      -0.946385       -25.7525 
   6   2.0000      -0.946385       -25.7525 
   7   2.0000      -0.934369       -25.4255 
   8   2.0000      -0.497215       -13.5299 
   9   2.0000      -0.485564       -13.2129 
  10   2.0000      -0.485564       -13.2129 
  11   2.0000      -0.476955       -12.9786 
  12   2.0000      -0.382296       -10.4028 
  13   2.0000      -0.350485        -9.5372 
  14   2.0000      -0.350485        -9.5372 
  15   2.0000      -0.318286        -8.6610 
  16   2.0000      -0.273645        -7.4463 
  17   2.0000      -0.270073        -7.3491 
  18   2.0000      -0.270073        -7.3491 
  19   2.0000      -0.269503        -7.3335 
  20   0.0000      -0.031446        -0.8557 
  21   0.0000      -0.004716        -0.1283 
  22   0.0000      -0.004716        -0.1283 
  23   0.0000       0.007321         0.1992 
  24   0.0000       0.037428         1.0185 
  25   0.0000       0.048280         1.3138 
  26   0.0000       0.048280         1.3138 
  27   0.0000       0.049507         1.3471 
  28   0.0000       0.059980         1.6321 
  29   0.0000       0.083935         2.2840 
  30   0.0000       0.086881         2.3642 
  31   0.0000       0.086882         2.3642 
  32   0.0000       0.099629         2.7110 
  33   0.0000       0.111158         3.0248 
  34   0.0000       0.115342         3.1386 
  35   0.0000       0.115342         3.1386 
  36   0.0000       0.135854         3.6968 
  37   0.0000       0.144210         3.9241 
  38   0.0000       0.144210         3.9242 
  39   0.0000       0.155341         4.2270 
  40   0.0000       0.156258         4.2520 
  41   0.0000       0.164861         4.4861 
  42   0.0000       0.168140         4.5753 
  43   0.0000       0.168140         4.5753 
  44   0.0000       0.175613         4.7787 
  45   0.0000       0.196471         5.3462 
  46   0.0000       0.196471         5.3462 
  47   0.0000       0.199227         5.4213 
  48   0.0000       0.224165         6.0998 
  49   0.0000       0.243901         6.6369 
  50   0.0000       0.252026         6.8580 
  51   0.0000       0.252026         6.8580 
  52   0.0000       0.257296         7.0014 
  53   0.0000       0.275478         7.4961 
  54   0.0000       0.282590         7.6897 
  55   0.0000       0.282591         7.6897 
  56   0.0000       0.287568         7.8251 
  57   0.0000       0.314366         8.5543 
  58   0.0000       0.317139         8.6298 
  59   0.0000       0.317141         8.6298 
  60   0.0000       0.322773         8.7831 
  61   0.0000       0.334546         9.1035 
  62   0.0000       0.336009         9.1433 
  63   0.0000       0.350334         9.5331 
  64   0.0000       0.350335         9.5331 
  65   0.0000       0.359171         9.7735 
  66   0.0000       0.361946         9.8491 
  67   0.0000       0.361946         9.8491 
  68   0.0000       0.378970        10.3123 
  69   0.0000       0.378970        10.3123 
  70   0.0000       0.387473        10.5437 
  71   0.0000       0.393463        10.7067 
  72   0.0000       0.438725        11.9383 
  73   0.0000       0.453679        12.3452 
  74   0.0000       0.453680        12.3453 
  75   0.0000       0.465486        12.6665 
  76   0.0000       0.471798        12.8383 
  77   0.0000       0.517348        14.0778 
  78   0.0000       0.520969        14.1763 
  79   0.0000       0.520970        14.1763 
  80   0.0000       0.536860        14.6087 
  81   0.0000       0.551977        15.0200 
  82   0.0000       0.606981        16.5168 
  83   0.0000       0.606983        16.5169 
  84   0.0000       0.615771        16.7560 
  85   0.0000       0.646072        17.5805 
  86   0.0000       0.653898        17.7935 
  87   0.0000       0.653898        17.7935 
  88   0.0000       0.656394        17.8614 
  89   0.0000       0.674388        18.3510 
  90   0.0000       0.674388        18.3510 
  91   0.0000       0.676877        18.4188 
  92   0.0000       0.694517        18.8988 
  93   0.0000       0.704386        19.1673 
  94   0.0000       0.716390        19.4940 
  95   0.0000       0.716391        19.4940 
  96   0.0000       0.733395        19.9567 
  97   0.0000       0.741951        20.1895 
  98   0.0000       0.741951        20.1895 
  99   0.0000       0.790588        21.5130 
 100   0.0000       0.800166        21.7736 
 101   0.0000       0.800167        21.7736 
 102   0.0000       0.808953        22.0127 
 103   0.0000       0.809945        22.0397 
 104   0.0000       0.811909        22.0932 
 105   0.0000       0.811909        22.0932 
 106   0.0000       0.816814        22.2266 
 107   0.0000       0.837432        22.7877 
 108   0.0000       0.837432        22.7877 
 109   0.0000       0.837854        22.7992 
 110   0.0000       0.847633        23.0653 
 111   0.0000       0.866169        23.5697 
 112   0.0000       0.876705        23.8564 
 113   0.0000       0.886426        24.1209 
 114   0.0000       0.895631        24.3714 
 115   0.0000       0.895631        24.3714 
 116   0.0000       0.901181        24.5224 
 117   0.0000       0.910569        24.7779 
 118   0.0000       0.971294        26.4303 
 119   0.0000       0.971294        26.4303 
 120   0.0000       0.986349        26.8399 
 121   0.0000       1.018150        27.7053 
 122   0.0000       1.018151        27.7053 
 123   0.0000       1.022808        27.8320 
 124   0.0000       1.036056        28.1925 
 125   0.0000       1.040369        28.3099 
 126   0.0000       1.054731        28.7007 
 127   0.0000       1.054732        28.7007 
 128   0.0000       1.071482        29.1565 
 129   0.0000       1.072032        29.1715 
 130   0.0000       1.072033        29.1715 
 131   0.0000       1.111499        30.2454 
 132   0.0000       1.118708        30.4416 
 133   0.0000       1.129778        30.7428 
 134   0.0000       1.140100        31.0237 
 135   0.0000       1.140229        31.0272 
 136   0.0000       1.140229        31.0272 
 137   0.0000       1.179367        32.0922 
 138   0.0000       1.179368        32.0922 
 139   0.0000       1.182046        32.1651 
 140   0.0000       1.206295        32.8249 
 141   0.0000       1.209244        32.9052 
 142   0.0000       1.209244        32.9052 
 143   0.0000       1.255734        34.1703 
 144   0.0000       1.277768        34.7698 
 145   0.0000       1.293032        35.1852 
 146   0.0000       1.325581        36.0709 
 147   0.0000       1.325582        36.0709 
 148   0.0000       1.346113        36.6296 
 149   0.0000       1.346114        36.6296 
 150   0.0000       1.354852        36.8674 
 151   0.0000       1.366530        37.1852 
 152   0.0000       1.438836        39.1527 
 153   0.0000       1.446434        39.3595 
 154   0.0000       1.446435        39.3595 
 155   0.0000       1.449259        39.4363 
 156   0.0000       1.466029        39.8927 
 157   0.0000       1.496546        40.7231 
 158   0.0000       1.512707        41.1629 
 159   0.0000       1.539997        41.9055 
 160   0.0000       1.539998        41.9055 
 161   0.0000       1.566928        42.6383 
 162   0.0000       1.572102        42.7791 
 163   0.0000       1.577647        42.9300 
 164   0.0000       1.577647        42.9300 
 165   0.0000       1.612101        43.8675 
 166   0.0000       1.617789        44.0223 
 167   0.0000       1.617790        44.0223 
 168   0.0000       1.639754        44.6200 
 169   0.0000       1.752866        47.6979 
 170   0.0000       1.752867        47.6979 
 171   0.0000       1.754916        47.7537 
 172   0.0000       1.790897        48.7328 
 173   0.0000       1.794982        48.8440 
 174   0.0000       1.794982        48.8440 
 175   0.0000       1.806239        49.1503 
 176   0.0000       1.826641        49.7054 
 177   0.0000       1.906738        51.8850 
 178   0.0000       1.906738        51.8850 
 179   0.0000       1.981530        53.9202 
 180   0.0000       1.996995        54.3410 
 181   0.0000       2.101719        57.1907 
 182   0.0000       2.101719        57.1907 
 183   0.0000       2.105565        57.2953 
 184   0.0000       2.121808        57.7373 
 185   0.0000       2.130555        57.9753 
 186   0.0000       2.130555        57.9753 
 187   0.0000       2.158899        58.7466 
 188   0.0000       2.188924        59.5637 
 189   0.0000       2.188924        59.5637 
 190   0.0000       2.189065        59.5675 
 191   0.0000       2.210983        60.1639 
 192   0.0000       2.259272        61.4779 
 193   0.0000       2.262356        61.5618 
 194   0.0000       2.262356        61.5618 
 195   0.0000       2.272013        61.8246 
 196   0.0000       2.279089        62.0172 
 197   0.0000       2.297706        62.5238 
 198   0.0000       2.297707        62.5238 
 199   0.0000       2.315726        63.0141 
 200   0.0000       2.352376        64.0114 
 201   0.0000       2.381619        64.8071 
 202   0.0000       2.381619        64.8071 
 203   0.0000       2.384165        64.8764 
 204   0.0000       2.448849        66.6366 
 205   0.0000       2.474671        67.3392 
 206   0.0000       2.497630        67.9640 
 207   0.0000       2.497630        67.9640 
 208   0.0000       2.516534        68.4784 
 209   0.0000       2.554867        69.5215 
 210   0.0000       2.554867        69.5215 
 211   0.0000       2.562829        69.7381 
 212   0.0000       2.613434        71.1151 
 213   0.0000       2.614379        71.1409 
 214   0.0000       2.630061        71.5676 
 215   0.0000       2.630061        71.5676 
 216   0.0000       2.631193        71.5984 
 217   0.0000       2.647408        72.0396 
 218   0.0000       2.663368        72.4739 
 219   0.0000       2.716615        73.9228 
 220   0.0000       2.716615        73.9228 
 221   0.0000       2.774544        75.4992 
 222   0.0000       2.788090        75.8678 
 223   0.0000       2.788090        75.8678 
 224   0.0000       2.801945        76.2448 
 225   0.0000       2.821441        76.7753 
 226   0.0000       2.853414        77.6453 
 227   0.0000       2.853415        77.6454 
 228   0.0000       2.915285        79.3289 
 229   0.0000       2.932916        79.8087 
 230   0.0000       2.932916        79.8087 
 231   0.0000       2.953338        80.3644 
 232   0.0000       3.577003        97.3352 
 233   0.0000       3.608380        98.1890 
 234   0.0000       3.608380        98.1890 
 235   0.0000       3.632166        98.8363 
 236   0.0000       3.750337       102.0519 
 237   0.0000       3.817337       103.8750 
 238   0.0000       3.817337       103.8750 
 239   0.0000       3.860282       105.0436 
 240   0.0000       3.863683       105.1361 
 241   0.0000       3.863683       105.1361 
 242   0.0000       3.878372       105.5359 
 243   0.0000       3.896794       106.0372 
 244   0.0000       3.956723       107.6679 
 245   0.0000       3.957198       107.6808 
 246   0.0000       3.957198       107.6808 
 247   0.0000       3.985274       108.4448 
 248   0.0000       3.998083       108.7934 
 249   0.0000       3.998083       108.7934 
 250   0.0000       4.003512       108.9411 
 251   0.0000       4.026151       109.5571 
 252   0.0000       4.043474       110.0285 
 253   0.0000       4.056813       110.3915 
 254   0.0000       4.056813       110.3915 
 255   0.0000       4.136897       112.5707 
 256   0.0000       4.157447       113.1299 
 257   0.0000       4.165322       113.3442 
 258   0.0000       4.233009       115.1860 
 259   0.0000       4.233009       115.1860 
 260   0.0000       4.243952       115.4838 
 261   0.0000       4.265339       116.0658 
 262   0.0000       4.265339       116.0658 
 263   0.0000       4.280010       116.4650 
 264   0.0000       4.295539       116.8876 
 265   0.0000       4.310556       117.2962 
 266   0.0000       4.310556       117.2962 
 267   0.0000       4.324836       117.6848 
 268   0.0000       4.352111       118.4270 
 269   0.0000       4.389258       119.4378 
 270   0.0000       4.400035       119.7310 
 271   0.0000       4.400035       119.7310 
 272   0.0000       4.405059       119.8677 
 273   0.0000       4.444954       120.9533 
 274   0.0000       4.444954       120.9533 
 275   0.0000       4.456070       121.2558 
 276   0.0000       4.568814       124.3238 
 277   0.0000       4.568814       124.3238 
 278   0.0000       4.639428       126.2453 
 279   0.0000       4.673440       127.1708 
 280   0.0000       4.704403       128.0133 
 281   0.0000       4.732111       128.7673 
 282   0.0000       4.738386       128.9380 
 283   0.0000       4.738387       128.9381 
 284   0.0000       4.835480       131.5801 
 285   0.0000       4.844346       131.8213 
 286   0.0000       4.861857       132.2979 
 287   0.0000       4.861857       132.2979 
 288   0.0000       4.951484       134.7367 
 289   0.0000       4.964603       135.0937 
 290   0.0000       4.976266       135.4111 
 291   0.0000       4.976266       135.4111 
 292   0.0000       5.013430       136.4224 
 293   0.0000       5.013430       136.4224 
 294   0.0000       5.042268       137.2071 
 295   0.0000       5.042994       137.2268 
 296   0.0000       5.063860       137.7946 
 297   0.0000       5.156228       140.3081 
 298   0.0000       5.156228       140.3081 
 299   0.0000       5.208656       141.7347 
 300   0.0000       5.225557       142.1946 
 301   0.0000       5.337893       145.2514 
 302   0.0000       5.337893       145.2514 
 303   0.0000       5.401216       146.9746 
 304   0.0000       5.504558       149.7866 
 305   0.0000       5.504559       149.7867 
 306   0.0000       5.541796       150.7999 
 307   0.0000       5.549036       150.9969 
 308   0.0000       5.976347       162.6247 
 309   0.0000       5.992127       163.0541 
 310   0.0000       5.994086       163.1074 
 311   0.0000       5.994086       163.1074 
 312   0.0000       6.123427       166.6269 
 313   0.0000       6.159446       167.6070 
 314   0.0000       6.159446       167.6070 
 315   0.0000       6.190053       168.4399 
 316   0.0000       6.433317       175.0595 
 317   0.0000       6.466384       175.9593 
 318   0.0000       6.471557       176.1000 
 319   0.0000       6.471557       176.1000 
 320   0.0000       6.552252       178.2958 
 321   0.0000       6.585051       179.1884 
 322   0.0000       6.585051       179.1884 
 323   0.0000       6.599098       179.5706 
 324   0.0000       6.757122       183.8707 
 325   0.0000       6.787818       184.7059 
 326   0.0000       6.787818       184.7059 
 327   0.0000       6.793117       184.8501 
 328   0.0000       6.818431       185.5389 
 329   0.0000       6.837768       186.0651 
 330   0.0000       6.867087       186.8629 
 331   0.0000       6.867087       186.8629 
 332   0.0000       6.896767       187.6706 
 333   0.0000       6.930430       188.5866 
 334   0.0000       6.930430       188.5866 
 335   0.0000       6.945848       189.0061 
 336   0.0000       6.949295       189.0999 
 337   0.0000       6.968581       189.6247 
 338   0.0000       6.975125       189.8028 
 339   0.0000       6.975125       189.8028 
 340   0.0000       7.013720       190.8530 
 341   0.0000       7.040346       191.5775 
 342   0.0000       7.040346       191.5776 
 343   0.0000       7.040526       191.5824 
 344   0.0000       7.088180       192.8792 
 345   0.0000       7.104278       193.3172 
 346   0.0000       7.104278       193.3172 
 347   0.0000       7.172444       195.1721 
 348   0.0000       7.353309       200.0937 
 349   0.0000       7.454896       202.8580 
 350   0.0000       7.493209       203.9006 
 351   0.0000       7.493209       203.9006 
 352   0.0000       7.587119       206.4560 
 353   0.0000       7.603005       206.8883 
 354   0.0000       7.603005       206.8883 
 355   0.0000       7.616221       207.2479 
 356   0.0000       7.654316       208.2845 
 357   0.0000       7.657322       208.3663 
 358   0.0000       7.657322       208.3663 
 359   0.0000       7.777692       211.6418 
 360   0.0000       8.510544       231.5837 
 361   0.0000       8.528118       232.0619 
 362   0.0000       8.528118       232.0619 
 363   0.0000       8.589749       233.7389 
 364   0.0000      15.446213       420.3128 
 365   0.0000      16.388636       445.9575 
 366   0.0000      16.388636       445.9575 
 367   0.0000      16.962679       461.5780 

                    ********************************
                    * MULLIKEN POPULATION ANALYSIS *
                    ********************************

-----------------------
MULLIKEN ATOMIC CHARGES
-----------------------
   0 O :   -0.393834
   1 H :    0.280933
   2 H :    0.112901
   3 O :   -0.393836
   4 H :    0.280934
   5 H :    0.112902
   6 O :   -0.393833
   7 H :    0.280933
   8 H :    0.112900
   9 O :   -0.393834
  10 H :    0.280933
  11 H :    0.112901
Sum of atomic charges:    0.0000000

--------------------------------
MULLIKEN REDUCED ORBITAL CHARGES
--------------------------------
  0 O s       :     3.971498  s :     3.971498
      pz      :     1.453836  p :     4.413208
      px      :     1.317142
      py      :     1.642231
      dz2     :     0.000959  d :     0.009263
      dxz     :     0.000666
      dyz     :     0.000925
      dx2y2   :     0.005134
      dxy     :     0.001579
      f0      :     0.000023  f :    -0.000136
      f+1     :    -0.000157
      f-1     :     0.000072
      f+2     :     0.000097
      f-2     :    -0.000008
      f+3     :    -0.000083
      f-3     :    -0.000079
  1 H s       :     0.618231  s :     0.618231
      pz      :     0.044015  p :     0.055008
      px      :    -0.039540
      py      :     0.050532
      dz2     :     0.000260  d :     0.045828
      dxz     :     0.018607
      dyz     :    -0.000005
      dx2y2   :     0.001781
      dxy     :     0.025185
  2 H s       :     0.755647  s :     0.755647
      pz      :     0.026467  p :     0.113605
      px      :     0.037913
      py      :     0.049225
      dz2     :     0.007605  d :     0.017847
      dxz     :     0.001831
      dyz     :     0.002153
      dx2y2   :     0.004185
      dxy     :     0.002073
  3 O s       :     3.971502  s :     3.971502
      pz      :     1.453836  p :     4.413207
      px      :     1.642231
      py      :     1.317141
      dz2     :     0.000959  d :     0.009263
      dxz     :     0.000925
      dyz     :     0.000666
      dx2y2   :     0.005134
      dxy     :     0.001579
      f0      :     0.000023  f :    -0.000136
      f+1     :     0.000072
      f-1     :    -0.000157
      f+2     :     0.000097
      f-2     :    -0.000008
      f+3     :    -0.000079
      f-3     :    -0.000083
  4 H s       :     0.618231  s :     0.618231
      pz      :     0.044015  p :     0.055007
      px      :     0.050533
      py      :    -0.039541
      dz2     :     0.000260  d :     0.045828
      dxz     :    -0.000005
      dyz     :     0.018607
      dx2y2   :     0.001781
      dxy     :     0.025185
  5 H s       :     0.755647  s :     0.755647
      pz      :     0.026467  p :     0.113605
      px      :     0.049225
      py      :     0.037913
      dz2     :     0.007605  d :     0.017847
      dxz     :     0.002153
      dyz     :     0.001831
      dx2y2   :     0.004185
      dxy     :     0.002073
  6 O s       :     3.971499  s :     3.971499
      pz      :     1.453835  p :     4.413207
      px      :     1.317140
      py      :     1.642231
      dz2     :     0.000959  d :     0.009263
      dxz     :     0.000666
      dyz     :     0.000925
      dx2y2   :     0.005134
      dxy     :     0.001579
      f0      :     0.000023  f :    -0.000136
      f+1     :    -0.000157
      f-1     :     0.000072
      f+2     :     0.000097
      f-2     :    -0.000008
      f+3     :    -0.000083
      f-3     :    -0.000079
  7 H s       :     0.618233  s :     0.618233
      pz      :     0.044015  p :     0.055007
      px      :    -0.039541
      py      :     0.050533
      dz2     :     0.000260  d :     0.045828
      dxz     :     0.018607
      dyz     :    -0.000005
      dx2y2   :     0.001781
      dxy     :     0.025185
  8 H s       :     0.755648  s :     0.755648
      pz      :     0.026467  p :     0.113605
      px      :     0.037913
      py      :     0.049225
      dz2     :     0.007605  d :     0.017847
      dxz     :     0.001831
      dyz     :     0.002153
      dx2y2   :     0.004185
      dxy     :     0.002073
  9 O s       :     3.971500  s :     3.971500
      pz      :     1.453835  p :     4.413208
      px      :     1.642231
      py      :     1.317142
      dz2     :     0.000959  d :     0.009263
      dxz     :     0.000925
      dyz     :     0.000666
      dx2y2   :     0.005134
      dxy     :     0.001579
      f0      :     0.000023  f :    -0.000136
      f+1     :     0.000072
      f-1     :    -0.000157
      f+2     :     0.000097
      f-2     :    -0.000008
      f+3     :    -0.000079
      f-3     :    -0.000083
 10 H s       :     0.618232  s :     0.618232
      pz      :     0.044015  p :     0.055007
      px      :     0.050533
      py      :    -0.039540
      dz2     :     0.000260  d :     0.045828
      dxz     :    -0.000005
      dyz     :     0.018607
      dx2y2   :     0.001781
      dxy     :     0.025185
 11 H s       :     0.755647  s :     0.755647
      pz      :     0.026467  p :     0.113605
      px      :     0.049225
      py      :     0.037913
      dz2     :     0.007605  d :     0.017847
      dxz     :     0.002153
      dyz     :     0.001831
      dx2y2   :     0.004185
      dxy     :     0.002073


                     *******************************
                     * LOEWDIN POPULATION ANALYSIS *
                     *******************************

----------------------
LOEWDIN ATOMIC CHARGES
----------------------
   0 O :    1.121958
   1 H :   -0.660967
   2 H :   -0.460991
   3 O :    1.121959
   4 H :   -0.660968
   5 H :   -0.460990
   6 O :    1.121959
   7 H :   -0.660968
   8 H :   -0.460991
   9 O :    1.121958
  10 H :   -0.660967
  11 H :   -0.460992

-------------------------------
LOEWDIN REDUCED ORBITAL CHARGES
-------------------------------
  0 O s       :     2.955993  s :     2.955993
      pz      :     1.282173  p :     3.801008
      px      :     1.215961
      py      :     1.302874
      dz2     :     0.020838  d :     0.101887
      dxz     :     0.010338
      dyz     :     0.018831
      dx2y2   :     0.042046
      dxy     :     0.009834
      f0      :     0.000344  f :     0.019154
      f+1     :     0.003294
      f-1     :     0.005223
      f+2     :     0.001120
      f-2     :     0.002146
      f+3     :     0.004334
      f-3     :     0.002693
  1 H s       :     0.545729  s :     0.545729
      pz      :     0.140968  p :     0.620499
      px      :     0.337198
      py      :     0.142333
      dz2     :     0.049229  d :     0.494738
      dxz     :     0.152158
      dyz     :     0.001560
      dx2y2   :     0.150223
      dxy     :     0.141568
  2 H s       :     0.584585  s :     0.584585
      pz      :     0.222598  p :     0.535209
      px      :     0.136760
      py      :     0.175851
      dz2     :     0.103865  d :     0.341197
      dxz     :     0.073174
      dyz     :     0.081984
      dx2y2   :     0.047260
      dxy     :     0.034914
  3 O s       :     2.955992  s :     2.955992
      pz      :     1.282172  p :     3.801008
      px      :     1.302874
      py      :     1.215961
      dz2     :     0.020838  d :     0.101887
      dxz     :     0.018831
      dyz     :     0.010338
      dx2y2   :     0.042046
      dxy     :     0.009834
      f0      :     0.000344  f :     0.019154
      f+1     :     0.005223
      f-1     :     0.003294
      f+2     :     0.001120
      f-2     :     0.002146
      f+3     :     0.002693
      f-3     :     0.004334
  4 H s       :     0.545730  s :     0.545730
      pz      :     0.140969  p :     0.620500
      px      :     0.142334
      py      :     0.337198
      dz2     :     0.049229  d :     0.494738
      dxz     :     0.001560
      dyz     :     0.152159
      dx2y2   :     0.150223
      dxy     :     0.141568
  5 H s       :     0.584585  s :     0.584585
      pz      :     0.222598  p :     0.535208
      px      :     0.175850
      py      :     0.136760
      dz2     :     0.103865  d :     0.341196
      dxz     :     0.081984
      dyz     :     0.073173
      dx2y2   :     0.047260
      dxy     :     0.034914
  6 O s       :     2.955992  s :     2.955992
      pz      :     1.282172  p :     3.801008
      px      :     1.215961
      py      :     1.302874
      dz2     :     0.020838  d :     0.101887
      dxz     :     0.010338
      dyz     :     0.018831
      dx2y2   :     0.042046
      dxy     :     0.009834
      f0      :     0.000344  f :     0.019154
      f+1     :     0.003294
      f-1     :     0.005223
      f+2     :     0.001120
      f-2     :     0.002146
      f+3     :     0.004334
      f-3     :     0.002693
  7 H s       :     0.545730  s :     0.545730
      pz      :     0.140969  p :     0.620500
      px      :     0.337198
      py      :     0.142334
      dz2     :     0.049229  d :     0.494738
      dxz     :     0.152158
      dyz     :     0.001560
      dx2y2   :     0.150223
      dxy     :     0.141568
  8 H s       :     0.584585  s :     0.584585
      pz      :     0.222598  p :     0.535209
      px      :     0.136760
      py      :     0.175851
      dz2     :     0.103865  d :     0.341197
      dxz     :     0.073174
      dyz     :     0.081984
      dx2y2   :     0.047260
      dxy     :     0.034914
  9 O s       :     2.955993  s :     2.955993
      pz      :     1.282173  p :     3.801008
      px      :     1.302874
      py      :     1.215961
      dz2     :     0.020838  d :     0.101887
      dxz     :     0.018831
      dyz     :     0.010338
      dx2y2   :     0.042046
      dxy     :     0.009834
      f0      :     0.000344  f :     0.019154
      f+1     :     0.005223
      f-1     :     0.003294
      f+2     :     0.001120
      f-2     :     0.002146
      f+3     :     0.002693
      f-3     :     0.004334
 10 H s       :     0.545729  s :     0.545729
      pz      :     0.140968  p :     0.620499
      px      :     0.142333
      py      :     0.337198
      dz2     :     0.049229  d :     0.494738
      dxz     :     0.001560
      dyz     :     0.152158
      dx2y2   :     0.150223
      dxy     :     0.141568
 11 H s       :     0.584586  s :     0.584586
      pz      :     0.222598  p :     0.535210
      px      :     0.175851
      py      :     0.136760
      dz2     :     0.103865  d :     0.341197
      dxz     :     0.081984
      dyz     :     0.073174
      dx2y2   :     0.047260
      dxy     :     0.034914


                      *****************************
                      * MAYER POPULATION ANALYSIS *
                      *****************************

  NA   - Mulliken gross atomic population
  ZA   - Total nuclear charge
  QA   - Mulliken gross atomic charge
  VA   - Mayer's total valence
  BVA  - Mayer's bonded valence
  FA   - Mayer's free valence

  ATOM       NA         ZA         QA         VA         BVA        FA
  0 O      8.3938     8.0000    -0.3938     1.8972     1.8972     0.0000
  1 H      0.7191     1.0000     0.2809     0.9407     0.9407     0.0000
  2 H      0.8871     1.0000     0.1129     1.1157     1.1157     0.0000
  3 O      8.3938     8.0000    -0.3938     1.8972     1.8972     0.0000
  4 H      0.7191     1.0000     0.2809     0.9407     0.9407    -0.0000
  5 H      0.8871     1.0000     0.1129     1.1157     1.1157     0.0000
  6 O      8.3938     8.0000    -0.3938     1.8972     1.8972     0.0000
  7 H      0.7191     1.0000     0.2809     0.9407     0.9407    -0.0000
  8 H      0.8871     1.0000     0.1129     1.1157     1.1157     0.0000
  9 O      8.3938     8.0000    -0.3938     1.8972     1.8972     0.0000
 10 H      0.7191     1.0000     0.2809     0.9407     0.9407     0.0000
 11 H      0.8871     1.0000     0.1129     1.1157     1.1157    -0.0000

  Mayer bond orders larger than 0.100000
B(  0-O ,  1-H ) :   0.8316 B(  0-O ,  2-H ) :   1.0734 B(  3-O ,  4-H ) :   0.8316 
B(  3-O ,  5-H ) :   1.0734 B(  6-O ,  7-H ) :   0.8316 B(  6-O ,  8-H ) :   1.0734 
B(  9-O , 10-H ) :   0.8316 B(  9-O , 11-H ) :   1.0734 

-------
TIMINGS
-------

Total SCF time: 0 days 0 hours 0 min 4 sec 

Total time                  ....       4.671 sec
Sum of individual times     ....       4.387 sec  ( 93.9%)

Fock matrix formation       ....       3.594 sec  ( 76.9%)
  Split-RI-J                ....       1.511 sec  ( 42.0% of F)
  XC integration            ....       1.966 sec  ( 54.7% of F)
    Basis function eval.    ....       0.189 sec  (  9.6% of XC)
    Density eval.           ....       0.414 sec  ( 21.0% of XC)
    XC-Functional eval.     ....       0.051 sec  (  2.6% of XC)
    XC-Potential eval.      ....       0.942 sec  ( 47.9% of XC)
Diagonalization             ....       0.134 sec  (  2.9%)
Density matrix formation    ....       0.022 sec  (  0.5%)
Population analysis         ....       0.020 sec  (  0.4%)
Initial guess               ....       0.196 sec  (  4.2%)
Orbital Transformation      ....       0.000 sec  (  0.0%)
Orbital Orthonormalization  ....       0.000 sec  (  0.0%)
DIIS solution               ....       0.053 sec  (  1.1%)
SOSCF solution              ....       0.097 sec  (  2.1%)
Grid generation             ....       0.272 sec  (  5.8%)


-------------------------------------------------------------------------------
                          DFT DISPERSION CORRECTION                            
                                                                               
                              DFTD3 V3.1  Rev 1                                
                          USING Becke-Johnson damping                          
-------------------------------------------------------------------------------
The TPSS functional is recognized
Active option DFTDOPT                   ...         4   

molecular C6(AA) [au] = 712.183247 


            DFT-D V3
 parameters
 s6 scaling factor         :     1.0000 
 a1 scaling factor         :     0.4535 
 s8 scaling factor         :     1.9435 
 a2 scaling factor         :     4.4752 
 ad hoc parameters k1-k3   :    16.0000     1.3333    -4.0000 

 Edisp/kcal,au: -3.716192913804  -0.005922129738 
 E6   /kcal   :  -2.109404573 
 E8   /kcal   :  -1.606788341 
 % E8         :  43.237484646 

-------------------------   ----------------
Dispersion correction           -0.005922130
-------------------------   ----------------


-------------------------   --------------------
FINAL SINGLE POINT ENERGY      -305.915062081620
-------------------------   --------------------



           ************************************************************
           *        Program running with 24 parallel MPI-processes    *
           *              working on a common directory               *
           ************************************************************
------------------------------------------------------------------------------
                         ORCA SCF GRADIENT CALCULATION
------------------------------------------------------------------------------

Gradient of the Kohn-Sham DFT energy:
Kohn-Sham wavefunction type      ... RKS
Hartree-Fock exchange scaling    ...    0.000
Number of operators              ...    1
Number of atoms                  ...   12
Basis set dimensions             ...  368
Integral neglect threshold       ... 2.5e-11
Integral primitive cutoff        ... 2.5e-12

Nuclear repulsion gradient       ... done
One Electron Gradient            ... done
Pre-screening matrix             ... done
RI-J gradient                    ... done
Exchange-correlation gradient    ... done
Dispersion correction            ... done

------------------
CARTESIAN GRADIENT
------------------

   1   O   :   -0.009505634   -0.006217116    0.006953426
   2   H   :    0.013190266    0.000872515    0.000996498
   3   H   :   -0.003438411    0.003988349   -0.006918758
   4   O   :   -0.006217112    0.009506624   -0.006953174
   5   H   :    0.000872676   -0.013191069   -0.000996456
   6   H   :    0.003988185    0.003438247    0.006918481
   7   O   :    0.009506468    0.006217376    0.006953590
   8   H   :   -0.013191056   -0.000872681    0.000996452
   9   H   :    0.003438406   -0.003988464   -0.006918891
  10   O   :    0.006217387   -0.009505474   -0.006953837
  11   H   :   -0.000872520    0.013190249   -0.000996492
  12   H   :   -0.003988631   -0.003438581    0.006919170

Difference to translation invariance:
           :    0.0000000231   -0.0000000240    0.0000000088

Norm of the cartesian gradient     ...    0.0414110382
RMS gradient                       ...    0.0069018397
MAX gradient                       ...    0.0131910690

-------
TIMINGS
-------

Total SCF gradient time            ...        1.682 sec

One electron gradient       ....       0.037 sec  (  2.2%)
Prescreening matrices       ....       0.077 sec  (  4.6%)
RI-J Coulomb gradient       ....       0.330 sec  ( 19.6%)
XC gradient                 ....       0.854 sec  ( 50.8%)
------------------------------------------------------------------------------
                         ORCA GEOMETRY RELAXATION STEP
------------------------------------------------------------------------------

Reading the OPT-File                    .... done
Getting information on internals        .... done
Copying old internal coords+grads       .... done
Making the new internal coordinates     .... (new redundants).... done
Validating the new internal coordinates .... (new redundants).... done
Calculating the B-matrix                .... done
Calculating the G,G- and P matrices     .... done
Transforming gradient to internals      .... done
Projecting the internal gradient        .... done
Number of atoms                         ....  12
Number of internal coordinates          .... 124
Current Energy                          ....  -305.915062082 Eh
Current gradient norm                   ....     0.041411038 Eh/bohr
Maximum allowed component of the step   ....  0.300
Current trust radius                    ....  0.300
Evaluating the initial hessian          ....  (Almloef) done
Projecting the Hessian                  .... done
Forming the augmented Hessian           .... done
Diagonalizing the augmented Hessian     .... done
Last element of RFO vector              ....  0.996972492
Lowest eigenvalues of augmented Hessian:
 -0.001881530  0.015221311  0.015533210  0.031689040  0.032219016
Length of the computed step             ....  0.077991183
The final length of the internal step   ....  0.077991183
Converting the step to cartesian space:
 Initial RMS(Int)=    0.0070038150
Transforming coordinates:
 Iter   0:  RMS(Cart)=    0.0093092608 RMS(Int)=    0.0070047360
 Iter   1:  RMS(Cart)=    0.0000210033 RMS(Int)=    0.0000306752
 Iter   2:  RMS(Cart)=    0.0000003688 RMS(Int)=    0.0000001982
 Iter   3:  RMS(Cart)=    0.0000000025 RMS(Int)=    0.0000000052
done
Storing new coordinates                 .... done

                                .--------------------.
          ----------------------|Geometry convergence|-------------------------
          Item                value                   Tolerance       Converged
          ---------------------------------------------------------------------
          RMS gradient        0.0025613874            0.0001000000      NO
          MAX gradient        0.0099585232            0.0003000000      NO
          RMS step            0.0070038150            0.0020000000      NO
          MAX step            0.0243151704            0.0040000000      NO
          ........................................................
          Max(Bonds)      0.0129      Max(Angles)    0.42
          Max(Dihed)        0.19      Max(Improp)    0.00
          ---------------------------------------------------------------------

The optimization has not yet converged - more geometry cycles are needed


    ---------------------------------------------------------------------------
                         Redundant Internal Coordinates
                            (Angstroem and degrees)

        Definition                    Value    dE/dq     Step     New-Value
    ----------------------------------------------------------------------------
     1. B(H   1,O   0)                0.9766 -0.009958  0.0129    0.9895   
     2. B(H   2,O   0)                0.9584 -0.008677  0.0087    0.9671   
     3. B(O   3,H   1)                1.7843  0.001990 -0.0105    1.7738   
     4. B(H   4,H   1)                2.2133 -0.002025 -0.0034    2.2099   
     5. B(H   4,O   3)                0.9766 -0.009959  0.0129    0.9895   
     6. B(H   5,O   3)                0.9584 -0.008677  0.0087    0.9671   
     7. B(O   6,H   4)                1.7843  0.001990 -0.0105    1.7738   
     8. B(H   7,O   6)                0.9766 -0.009959  0.0129    0.9895   
     9. B(H   7,H   4)                2.2133 -0.002025 -0.0034    2.2099   
    10. B(H   8,O   6)                0.9584 -0.008678  0.0087    0.9671   
    11. B(O   9,H   7)                1.7843  0.001990 -0.0105    1.7738   
    12. B(H  10,O   9)                0.9766 -0.009958  0.0129    0.9895   
    13. B(H  10,H   1)                2.2133 -0.002025 -0.0034    2.2099   
    14. B(H  10,O   0)                1.7843  0.001990 -0.0105    1.7738   
    15. B(H  10,H   7)                2.2133 -0.002025 -0.0034    2.2099   
    16. B(H  11,O   9)                0.9584 -0.008678  0.0087    0.9671   
    17. A(H   1,O   0,H  10)          102.61  0.001602   -0.13    102.48   
    18. A(H   2,O   0,H  10)          119.85 -0.000070   -0.05    119.80   
    19. A(H   1,O   0,H   2)          105.48 -0.000875    0.16    105.64   
    20. A(O   0,H   1,O   3)          167.32 -0.001609    0.14    167.46   
    21. A(O   0,H   1,H  10)           51.88  0.000912   -0.28     51.60   
    22. A(O   0,H   1,H   4)          141.84  0.000904   -0.28    141.56   
    23. A(H   4,H   1,H  10)           90.00 -0.000000   -0.00     90.00   
    24. A(O   3,H   1,H   4)           25.51 -0.002514    0.42     25.92   
    25. A(O   3,H   1,H  10)          115.50 -0.002515    0.42    115.91   
    26. A(H   1,O   3,H   4)          102.61  0.001602   -0.13    102.48   
    27. A(H   4,O   3,H   5)          105.48 -0.000875    0.16    105.64   
    28. A(H   1,O   3,H   5)          119.85 -0.000070   -0.05    119.80   
    29. A(O   3,H   4,H   7)          141.84  0.000904   -0.28    141.56   
    30. A(O   6,H   4,H   7)           25.51 -0.002514    0.42     25.92   
    31. A(H   1,H   4,H   7)           90.00 -0.000000   -0.00     90.00   
    32. A(H   1,H   4,O   6)          115.50 -0.002515    0.42    115.91   
    33. A(O   3,H   4,O   6)          167.32 -0.001609    0.14    167.46   
    34. A(H   1,H   4,O   3)           51.88  0.000912   -0.28     51.60   
    35. A(H   7,O   6,H   8)          105.48 -0.000875    0.16    105.64   
    36. A(H   4,O   6,H   8)          119.85 -0.000070   -0.05    119.80   
    37. A(H   4,O   6,H   7)          102.61  0.001602   -0.13    102.48   
    38. A(H   4,H   7,O   9)          115.50 -0.002515    0.42    115.91   
    39. A(O   6,H   7,O   9)          167.32 -0.001609    0.14    167.46   
    40. A(H   4,H   7,O   6)           51.88  0.000912   -0.28     51.60   
    41. A(O   9,H   7,H  10)           25.51 -0.002514    0.42     25.92   
    42. A(H   4,H   7,H  10)           90.00 -0.000000   -0.00     90.00   
    43. A(O   6,H   7,H  10)          141.84  0.000904   -0.28    141.56   
    44. A(H   7,O   9,H  11)          119.85 -0.000070   -0.05    119.80   
    45. A(H   7,O   9,H  10)          102.61  0.001602   -0.13    102.48   
    46. A(H  10,O   9,H  11)          105.48 -0.000875    0.16    105.64   
    47. A(O   0,H  10,O   9)          167.32 -0.001609    0.14    167.46   
    48. A(O   0,H  10,H   1)           25.51 -0.002514    0.42     25.92   
    49. A(H   1,H  10,O   9)          141.84  0.000904   -0.28    141.56   
    50. A(H   1,H  10,H   7)           90.00 -0.000000   -0.00     90.00   
    51. A(O   0,H  10,H   7)          115.50 -0.002515    0.42    115.91   
    52. A(H   7,H  10,O   9)           51.88  0.000912   -0.28     51.60   
    53. D(H  10,H   1,O   0,H   2)    126.24  0.000312   -0.05    126.19   
    54. D(O   3,H   1,O   0,H   2)    120.24  0.000335   -0.06    120.18   
    55. D(H   4,H   1,O   0,H   2)    123.10  0.000004    0.05    123.15   
    56. D(O   3,H   1,O   0,H  10)     -6.00  0.000023   -0.00     -6.00   
    57. D(H   4,H   1,O   0,H  10)     -3.14 -0.000308    0.10     -3.04   
    58. D(H   4,O   3,H   1,O   0)      4.10 -0.000180    0.12      4.22   
    59. D(H   4,O   3,H   1,H  10)     -1.12 -0.000116    0.11     -1.01   
    60. D(H   5,O   3,H   1,H   4)    116.34  0.000053    0.07    116.41   
    61. D(H   5,O   3,H   1,O   0)    120.45 -0.000127    0.19    120.63   
    62. D(H   5,O   3,H   1,H  10)    115.22 -0.000062    0.18    115.40   
    63. D(O   6,H   4,H   1,O   3)   -178.54  0.000146   -0.01   -178.55   
    64. D(O   3,H   4,H   1,H  10)    178.99 -0.000126    0.11    179.09   
    65. D(O   6,H   4,H   1,H  10)      0.44  0.000020    0.10      0.54   
    66. D(O   6,H   4,H   1,O   0)      2.91  0.000293    0.01      2.92   
    67. D(H   7,H   4,O   3,H   1)      3.14  0.000308   -0.10      3.04   
    68. D(O   6,H   4,O   3,H   1)      6.00 -0.000023    0.00      6.00   
    69. D(O   6,H   4,O   3,H   5)   -120.24 -0.000335    0.06   -120.18   
    70. D(H   1,H   4,O   3,H   5)   -126.24 -0.000312    0.05   -126.19   
    71. D(H   7,H   4,H   1,O   3)   -178.06  0.000151   -0.05   -178.11   
    72. D(H   7,H   4,H   1,H  10)      0.93  0.000025    0.06      0.98   
    73. D(H   7,H   4,O   3,H   5)   -123.10 -0.000004   -0.05   -123.15   
    74. D(O   3,H   4,H   1,O   0)   -178.54  0.000147    0.02   -178.53   
    75. D(H   7,H   4,H   1,O   0)      3.40  0.000298   -0.03      3.36   
    76. D(H   8,O   6,H   4,H   1)   -115.22  0.000062   -0.18   -115.40   
    77. D(H   8,O   6,H   4,H   7)   -116.34 -0.000053   -0.07   -116.41   
    78. D(H   8,O   6,H   4,O   3)   -120.45  0.000127   -0.19   -120.63   
    79. D(H   7,O   6,H   4,H   1)      1.12  0.000116   -0.11      1.01   
    80. D(H   7,O   6,H   4,O   3)     -4.10  0.000180   -0.12     -4.22   
    81. D(O   6,H   7,H   4,O   3)    178.54 -0.000147   -0.02    178.53   
    82. D(O   6,H   7,H   4,H   1)   -178.99  0.000126   -0.11   -179.09   
    83. D(O   9,H   7,H   4,O   3)     -2.91 -0.000293   -0.01     -2.92   
    84. D(H  10,H   7,O   6,H   4)     -3.14 -0.000308    0.10     -3.04   
    85. D(H  10,H   7,O   6,H   8)    123.10  0.000004    0.05    123.15   
    86. D(O   9,H   7,O   6,H   8)    120.24  0.000335   -0.06    120.18   
    87. D(H   4,H   7,O   6,H   8)    126.24  0.000312   -0.05    126.19   
    88. D(H  10,H   7,H   4,O   6)    178.06 -0.000151    0.05    178.11   
    89. D(H  10,H   7,H   4,H   1)     -0.93 -0.000025   -0.06     -0.98   
    90. D(O   9,H   7,O   6,H   4)     -6.00  0.000023   -0.00     -6.00   
    91. D(H  10,H   7,H   4,O   3)     -3.40 -0.000298    0.03     -3.36   
    92. D(O   9,H   7,H   4,O   6)    178.54 -0.000146    0.01    178.55   
    93. D(O   9,H   7,H   4,H   1)     -0.44 -0.000020   -0.10     -0.54   
    94. D(H  11,O   9,H   7,H  10)    116.34  0.000053    0.07    116.41   
    95. D(H  11,O   9,H   7,H   4)    115.22 -0.000062    0.18    115.40   
    96. D(H  11,O   9,H   7,O   6)    120.45 -0.000127    0.19    120.63   
    97. D(H  10,O   9,H   7,H   4)     -1.12 -0.000116    0.11     -1.01   
    98. D(H  10,O   9,H   7,O   6)      4.10 -0.000180    0.12      4.22   
    99. D(O   0,H  10,H   7,O   6)      2.91  0.000293    0.01      2.92   
[...]
     13       0.188733  -0.033065  -0.022912  -0.001061   0.014572   0.043530
     14       0.058272  -0.213018   0.015908   0.180802   0.290935   0.107579
     15       0.058722  -0.268556  -0.362291  -0.395528   0.072919  -0.209711
     16       0.228037  -0.218177  -0.088162   0.105747   0.324780   0.312842
     17      -0.189171   0.292140   0.318862   0.217568  -0.211933  -0.026511
     18      -0.188102   0.009462  -0.018313  -0.010617  -0.021035   0.007511
     19      -0.182440   0.059835  -0.000450  -0.030690  -0.001057  -0.004705
     20       0.008197  -0.033488   0.011929   0.033796  -0.028547  -0.005109
     21      -0.188887   0.022934  -0.033020  -0.001096   0.014560  -0.043516
     22      -0.225325  -0.045199  -0.000425   0.006542  -0.090559   0.306513
     23       0.058421   0.015809   0.212955  -0.180740  -0.291008   0.107411
     24      -0.228238   0.088253  -0.218045   0.105609   0.324843  -0.312589
     25       0.058488  -0.362132   0.268396   0.395742  -0.072937  -0.209555
     26      -0.188993   0.318822  -0.291950  -0.217813   0.211980  -0.026480
     27       0.182641   0.000415   0.059798  -0.030660  -0.001040   0.004721
     28      -0.188197  -0.018313  -0.009443   0.010609   0.021031   0.007525
     29       0.008258   0.011911   0.033483  -0.033792   0.028554  -0.005087
     30       0.225320   0.000352  -0.045234   0.006519  -0.090565  -0.306571
     31      -0.189005  -0.033031  -0.022906   0.001083  -0.014558  -0.043506
     32       0.058388   0.213018  -0.015914   0.180701   0.290897   0.107318
     33      -0.058873  -0.268245  -0.362029   0.395713  -0.072971   0.209445
     34      -0.228444  -0.218129  -0.088126  -0.105611  -0.324752  -0.312541
     35      -0.189420  -0.291877  -0.318665   0.217775  -0.211960  -0.026535
                 18         19         20         21         22         23    
      0      -0.027665   0.013336  -0.010070  -0.017109  -0.011707   0.019888
      1      -0.002587   0.019850  -0.019526   0.016154  -0.004357  -0.006947
      2       0.025427   0.023212  -0.024253   0.008410  -0.020523  -0.006491
      3       0.011190  -0.028599  -0.025073   0.028976  -0.020162  -0.018380
      4      -0.190211   0.149534   0.316302  -0.542133   0.145309   0.398435
      5       0.158274  -0.307854   0.337587  -0.358479   0.169086   0.258542
      6       0.267229  -0.376309   0.094073   0.053366  -0.007933  -0.114181
      7       0.037964  -0.304075   0.152263   0.071817   0.113068  -0.102657
      8      -0.105435  -0.006305   0.047343   0.010242   0.067012  -0.000842
      9       0.019853   0.002585   0.019529  -0.004356  -0.016152  -0.006948
     10      -0.013327  -0.027669  -0.010068   0.011705  -0.017109  -0.019889
     11      -0.023217   0.025424  -0.024254   0.020521   0.008407   0.006491
     12       0.149367   0.190418  -0.316347   0.145283   0.542104   0.398454
     13       0.028575   0.011218  -0.025075   0.020159   0.028975   0.018382
     14       0.307724   0.158325   0.337630  -0.169042  -0.358443  -0.258552
     15      -0.303972  -0.038111  -0.152270   0.113053  -0.071838  -0.102642
     16       0.376070   0.267424   0.094073   0.007949   0.053380   0.114176
     17       0.006360  -0.105439   0.047350  -0.067010   0.010249   0.000831
     18      -0.027660   0.013329   0.010072  -0.017109  -0.011705  -0.019890
     19      -0.002577   0.019853   0.019525   0.016155  -0.004354   0.006947
     20      -0.025416  -0.023223  -0.024255  -0.008410   0.020518  -0.006490
     21       0.011233  -0.028604   0.025075   0.028977  -0.020157   0.018381
     22      -0.190501   0.149566  -0.316310  -0.542139   0.145270  -0.398449
     23      -0.158257   0.307771   0.337598   0.358475  -0.169037   0.258543
     24       0.267425  -0.376257  -0.094067   0.053371  -0.007954   0.114187
     25       0.038179  -0.304136  -0.152287   0.071824   0.113034   0.102659
     26       0.105398   0.006374   0.047362  -0.010244  -0.067000  -0.000838
     27       0.019848   0.002580  -0.019527  -0.004357  -0.016156   0.006948
     28      -0.013338  -0.027656   0.010073   0.011706  -0.017109   0.019890
     29       0.023216  -0.025418  -0.024252  -0.020521  -0.008410   0.006491
     30       0.149709   0.190306   0.316245   0.145319   0.542163  -0.398441
     31       0.028628   0.011204   0.025071   0.020164   0.028978  -0.018382
     32      -0.307938  -0.158178   0.337579   0.169055   0.358511  -0.258521
     33      -0.304193  -0.038045   0.152290   0.113050  -0.071826   0.102644
     34       0.376501   0.267221  -0.094100   0.007955   0.053360  -0.114183
     35      -0.006281   0.105380   0.047347   0.067013  -0.010252   0.000828
                 24         25         26         27         28         29    
      0       0.015966  -0.019389  -0.000286  -0.009318   0.031254   0.037304
      1       0.018811  -0.028305   0.003936  -0.021431   0.003341   0.005871
      2      -0.025561   0.030940   0.001966   0.018550  -0.004034  -0.003682
      3       0.051045  -0.080449  -0.000459  -0.066516  -0.491452  -0.608764
      4      -0.228056   0.350026  -0.042987   0.284458  -0.067392  -0.069953
      5       0.317323  -0.427050   0.005113  -0.280516   0.031925   0.032111
      6      -0.279949   0.391564  -0.026537   0.267132   0.024662   0.032005
      7      -0.085530   0.130770  -0.016103   0.088769  -0.024251  -0.017577
      8       0.088386  -0.114722   0.001331  -0.076353   0.026886   0.027021
      9      -0.018808  -0.003937  -0.028305  -0.021434   0.003341   0.003231
     10       0.015965  -0.000286   0.019389   0.009320  -0.031254  -0.020531
     11      -0.025558   0.001965  -0.030941  -0.018552   0.004034   0.003090
     12       0.228008   0.043008   0.350033   0.284484  -0.067392  -0.042542
     13       0.051035  -0.000454   0.080448   0.066521   0.491445   0.340209
     14       0.317288   0.005129   0.427059   0.280545  -0.031924  -0.018626
     15       0.085523   0.016105   0.130773   0.088781  -0.024250  -0.024070
     16      -0.279914  -0.026551  -0.391568  -0.267162  -0.024661  -0.019996
     17       0.088373   0.001335   0.114722   0.076360  -0.026881  -0.025452
     18      -0.015963  -0.019391  -0.000287   0.009317  -0.031253   0.037305
     19      -0.018806  -0.028308   0.003936   0.021431  -0.003340   0.005871
     20      -0.025557  -0.030945  -0.001966   0.018549  -0.004034   0.003682
     21      -0.051032  -0.080455  -0.000460   0.066516   0.491438  -0.608775
     22       0.227996   0.350067  -0.042981  -0.284459   0.067388  -0.069955
     23       0.317258   0.427105  -0.005107  -0.280507   0.031923  -0.032112
     24       0.279889   0.391609  -0.026535  -0.267125  -0.024661   0.032005
     25       0.085507   0.130784  -0.016096  -0.088769   0.024250  -0.017577
     26       0.088372   0.114736  -0.001335  -0.076349   0.026883  -0.027017
     27       0.018807  -0.003935  -0.028308   0.021431  -0.003341   0.003231
     28      -0.015963  -0.000288   0.019390  -0.009318   0.031253  -0.020532
     29      -0.025556  -0.001968   0.030944  -0.018550   0.004034  -0.003090
     30      -0.227993   0.042977   0.350060  -0.284458   0.067390  -0.042547
     31      -0.051033  -0.000461   0.080455  -0.066516  -0.491437   0.340222
     32       0.317265  -0.005086  -0.427097   0.280517  -0.031924   0.018627
     33      -0.085517   0.016092   0.130783  -0.088771   0.024250  -0.024072
     34       0.279898  -0.026515  -0.391606   0.267132   0.024662  -0.019996
     35       0.088369  -0.001326  -0.114736   0.076352  -0.026886   0.025452
                 30         31         32         33         34         35    
      0       0.020533   0.029702   0.014746  -0.017718   0.011864  -0.015115
      1       0.003231   0.004480  -0.015903   0.018276  -0.013540   0.016107
      2      -0.003090  -0.002914   0.021898  -0.025237   0.018421  -0.021924
      3      -0.340232  -0.494110  -0.024479   0.040414  -0.011850   0.030100
      4      -0.042545  -0.054022  -0.012104   0.015181  -0.009975   0.012904
      5       0.018626   0.023731   0.015674  -0.016208   0.013404  -0.013669
      6       0.019998   0.027784  -0.207985   0.238678  -0.175147   0.207835
      7      -0.024071  -0.012998   0.266148  -0.306407   0.222790  -0.265660
      8       0.025452   0.022525  -0.363347   0.418561  -0.305075   0.363351
      9      -0.005872  -0.004480   0.014348   0.013173   0.019716   0.016174
     10       0.037305   0.029702   0.013214   0.011523   0.019047   0.015180
     11      -0.003682  -0.002914   0.019746   0.017915   0.027218   0.022017
     12       0.069956   0.054021   0.010789   0.009695   0.016268   0.012958
     13      -0.608786  -0.494107  -0.020696  -0.011281  -0.042528  -0.030239
     14       0.032111   0.023730   0.014321   0.013041   0.017641   0.013732
     15       0.017578   0.012996  -0.240001  -0.216639  -0.330494  -0.266794
     16       0.032008   0.027784  -0.187648  -0.170341  -0.257509  -0.208719
     17       0.027021   0.022523  -0.327644  -0.296679  -0.451446  -0.364901
     18       0.020531  -0.029704  -0.014725  -0.018729   0.010112   0.015190
     19       0.003231  -0.004481   0.016029   0.019372  -0.011642  -0.016185
     20       0.003090  -0.002915   0.022039   0.026746  -0.015809  -0.022031
     21      -0.340199   0.494135   0.022725   0.042011  -0.009042  -0.030259
     22      -0.042543   0.054024   0.012068   0.016008  -0.008537  -0.012968
     23      -0.018626   0.023731   0.015935   0.017303  -0.011526  -0.013739
     24       0.019994  -0.027787   0.209423   0.253020  -0.150336  -0.208852
     25      -0.024070   0.013000  -0.267759  -0.324753   0.191054   0.266964
     26      -0.025448   0.022529  -0.365637  -0.443607   0.261743   0.365132
     27      -0.005871   0.004481  -0.017482   0.011956   0.017838  -0.016214
     28       0.037303  -0.029704  -0.016161   0.010399   0.017314  -0.015214
     29       0.003682  -0.002915   0.024053  -0.016242  -0.024634   0.022071
     30       0.069954  -0.054027  -0.013301   0.008772   0.014849  -0.012987
     31      -0.608753   0.494146   0.026317  -0.009461  -0.039766   0.030262
     32      -0.032110   0.023731   0.017202  -0.011843  -0.015782   0.013771
     33       0.017577  -0.013001   0.292233  -0.196305  -0.299091   0.267449
     34       0.032005  -0.027788   0.228452  -0.154443  -0.232959   0.209236
     35      -0.027020   0.022530  -0.399051   0.268913   0.408570  -0.365798


-----------
IR SPECTRUM  
-----------

 Mode    freq (cm**-1)   T**2         TX         TY         TZ
-------------------------------------------------------------------
   6:        53.21    0.000000  (  0.000578   0.000321  -0.000044)
   7:        94.67    3.179964  ( -0.000016   0.000020   1.783245)
   8:       228.35    0.000003  (  0.000768   0.001678  -0.000133)
   9:       269.69   41.477302  ( -0.000106  -0.001360   6.440287)
  10:       273.68   21.469709  (  3.481260  -3.057864   0.002075)
  11:       273.68   21.465463  (  3.059784   3.478956   0.006911)
  12:       287.21    5.980462  ( -0.000755  -0.006504  -2.445490)
  13:       303.04  219.837423  ( -2.024632 -14.688032   0.002039)
  14:       303.07  219.808010  (-14.687000   2.024856   0.001610)
  15:       338.80    0.000020  (  0.002807   0.003231  -0.001114)
  16:       453.59    0.000003  (  0.001643   0.000016   0.000000)
  17:       480.29    7.180790  (  0.001969   0.002368   2.679698)
  18:       499.05   37.233270  (  3.213062   5.187437  -0.001219)
  19:       499.05   37.231321  ( -5.187446   3.212745   0.000571)
  20:       818.68  156.089483  ( -0.000583  -0.000837  12.493578)
  21:       903.62  130.467543  (  9.113239  -6.885958   0.000129)
  22:       903.63  130.465864  (  6.886099   9.113040   0.000932)
  23:      1073.56    0.000000  (  0.000212  -0.000175  -0.000125)
  24:      1638.08   81.697843  ( -0.000057  -0.000631   9.038686)
  25:      1656.98   42.600757  (  3.560705   5.470113   0.000671)
  26:      1656.99   42.598005  (  5.469979  -3.560525  -0.000195)
  27:      1692.90    0.000000  (  0.000330  -0.000132   0.000293)
  28:      3064.98    0.000000  ( -0.000417   0.000310   0.000153)
  29:      3204.32  1836.334205  (-37.208189  21.257584   0.000013)
  30:      3204.32  1836.336513  (-21.257645 -37.208185   0.000036)
  31:      3255.36    0.004114  (  0.000752   0.001147   0.064124)
  32:      3761.52   42.182964  (  0.247054   0.511786  -6.469931)
  33:      3761.54   67.310952  (  4.442217  -6.893662  -0.234705)
  34:      3761.54   67.255760  ( -6.895565  -4.422698  -0.383001)
  35:      3761.86    0.000346  ( -0.009879   0.012194  -0.009963)

The first frequency considered to be a vibration is 6
The total number of vibrations considered is 30


--------------------------
THERMOCHEMISTRY AT 298.15K
--------------------------

Temperature         ... 298.15 K
Pressure            ... 1.00 atm
Total Mass          ... 72.06 AMU

Throughout the following assumptions are being made:
  (1) The electronic state is orbitally nondegenerate
  (2) There are no thermally accessible electronically excited states
  (3) Hindered rotations indicated by low frequency modes are not
      treated as such but are treated as vibrations and this may
      cause some error
  (4) All equations used are the standard statistical mechanics
      equations for an ideal gas
  (5) All vibrations are strictly harmonic

freq.      53.21  E(vib)   ...       0.52 
freq.      94.67  E(vib)   ...       0.47 
freq.     228.35  E(vib)   ...       0.32 
freq.     269.69  E(vib)   ...       0.29 
freq.     273.68  E(vib)   ...       0.28 
freq.     273.68  E(vib)   ...       0.28 
freq.     287.21  E(vib)   ...       0.27 
freq.     303.04  E(vib)   ...       0.26 
freq.     303.07  E(vib)   ...       0.26 
freq.     338.80  E(vib)   ...       0.23 
freq.     453.59  E(vib)   ...       0.16 
freq.     480.29  E(vib)   ...       0.15 
freq.     499.05  E(vib)   ...       0.14 
freq.     499.05  E(vib)   ...       0.14 
freq.     818.68  E(vib)   ...       0.05 
freq.     903.62  E(vib)   ...       0.03 
freq.     903.63  E(vib)   ...       0.03 
freq.    1073.56  E(vib)   ...       0.02 
freq.    1638.08  E(vib)   ...       0.00 
freq.    1656.98  E(vib)   ...       0.00 
freq.    1656.99  E(vib)   ...       0.00 
freq.    1692.90  E(vib)   ...       0.00 
freq.    3064.98  E(vib)   ...       0.00 
freq.    3204.32  E(vib)   ...       0.00 
freq.    3204.32  E(vib)   ...       0.00 
freq.    3255.36  E(vib)   ...       0.00 
freq.    3761.52  E(vib)   ...       0.00 
freq.    3761.54  E(vib)   ...       0.00 
freq.    3761.54  E(vib)   ...       0.00 
freq.    3761.86  E(vib)   ...       0.00 

------------
INNER ENERGY
------------

The inner energy is: U= E(el) + E(ZPE) + E(vib) + E(rot) + E(trans)
    E(el)   - is the total energy from the electronic structure calculation
              = E(kin-el) + E(nuc-el) + E(el-el) + E(nuc-nuc)
    E(ZPE)  - the the zero temperature vibrational energy from the frequency calculation
    E(vib)  - the the finite temperature correction to E(ZPE) due to population
              of excited vibrational states
    E(rot)  - is the rotational thermal energy
    E(trans)- is the translational thermal energy

Summary of contributions to the inner energy U:
Electronic energy                ...   -305.91651757 Eh
Zero point energy                ...      0.09677030 Eh      60.72 kcal/mol
Thermal vibrational correction   ...      0.00626843 Eh       3.93 kcal/mol
Thermal rotational correction    ...      0.00141627 Eh       0.89 kcal/mol
Thermal translational correction ...      0.00141627 Eh       0.89 kcal/mol
-----------------------------------------------------------------------
Total thermal energy                   -305.81064630 Eh


Summary of corrections to the electronic energy:
(perhaps to be used in another calculation)
Total thermal correction                  0.00910097 Eh       5.71 kcal/mol
Non-thermal (ZPE) correction              0.09677030 Eh      60.72 kcal/mol
-----------------------------------------------------------------------
Total correction                          0.10587127 Eh      66.44 kcal/mol


--------
ENTHALPY
--------

The enthalpy is H = U + kB*T
                kB is Boltzmann's constant
Total free energy                 ...   -305.81064630 Eh 
Thermal Enthalpy correction       ...      0.00094421 Eh       0.59 kcal/mol
-----------------------------------------------------------------------
Total Enthalpy                    ...   -305.80970209 Eh


Note: Only C1 symmetry has been detected, increase convergence thresholds 
      if your molecule has a higher symmetry. Symmetry factor of 1.0 is   
      used for the rotational entropy correction. 
 

Note: Rotational entropy computed according to Herzberg 
Infrared and Raman Spectra, Chapter V,1, Van Nostrand Reinhold, 1945 
Point Group:  C1, Symmetry Number:   1  
Rotational constants in cm-1:     0.124198     0.124198     0.063407 

Vibrational entropy computed according to the QRRHO of S. Grimme
Chem.Eur.J. 2012 18 9955


-------
ENTROPY
-------

The entropy contributions are T*S = T*(S(el)+S(vib)+S(rot)+S(trans))
     S(el)   - electronic entropy
     S(vib)  - vibrational entropy
     S(rot)  - rotational entropy
     S(trans)- translational entropy
The entropies will be listed as mutliplied by the temperature to get
units of energy

Electronic entropy                ...      0.00000000 Eh      0.00 kcal/mol
Vibrational entropy               ...      0.01061130 Eh      6.66 kcal/mol
Rotational entropy                ...      0.01278237 Eh      8.02 kcal/mol
Translational entropy             ...      0.01840717 Eh     11.55 kcal/mol
-----------------------------------------------------------------------
Final entropy term                ...      0.04180084 Eh     26.23 kcal/mol

In case the symmetry of your molecule has not been determined correctly
or in case you have a reason to use a different symmetry number we print 
out the resulting rotational entropy values for sn=1,12 :
 --------------------------------------------------------
|  sn= 1 | S(rot)=       0.01278237 Eh      8.02 kcal/mol|
|  sn= 2 | S(rot)=       0.01212791 Eh      7.61 kcal/mol|
|  sn= 3 | S(rot)=       0.01174508 Eh      7.37 kcal/mol|
|  sn= 4 | S(rot)=       0.01147345 Eh      7.20 kcal/mol|
|  sn= 5 | S(rot)=       0.01126277 Eh      7.07 kcal/mol|
|  sn= 6 | S(rot)=       0.01109062 Eh      6.96 kcal/mol|
|  sn= 7 | S(rot)=       0.01094507 Eh      6.87 kcal/mol|
|  sn= 8 | S(rot)=       0.01081900 Eh      6.79 kcal/mol|
|  sn= 9 | S(rot)=       0.01070779 Eh      6.72 kcal/mol|
|  sn=10 | S(rot)=       0.01060831 Eh      6.66 kcal/mol|
|  sn=11 | S(rot)=       0.01051832 Eh      6.60 kcal/mol|
|  sn=12 | S(rot)=       0.01043616 Eh      6.55 kcal/mol|
 --------------------------------------------------------


-------------------
GIBBS FREE ENERGY
-------------------

The Gibbs free energy is G = H - T*S

Total enthalpy                    ...   -305.80970209 Eh 
Total entropy correction          ...     -0.04180084 Eh    -26.23 kcal/mol
-----------------------------------------------------------------------
Final Gibbs free energy         ...   -305.85150292 Eh

For completeness - the Gibbs free energy minus the electronic energy
G-E(el)                           ...      0.06501465 Eh     40.80 kcal/mol


Total Time for Numerical Frequencies  :       201.315 sec

Timings for individual modules:

Sum of individual times         ...       79.768 sec (=   1.329 min)
GTO integral calculation        ...       10.120 sec (=   0.169 min)  12.7 %
SCF iterations                  ...       42.049 sec (=   0.701 min)  52.7 %
SCF Gradient evaluation         ...       26.306 sec (=   0.438 min)  33.0 %
Geometry relaxation             ...        1.292 sec (=   0.022 min)   1.6 %
                             ****ORCA TERMINATED NORMALLY****
TOTAL RUN TIME: 0 days 0 hours 4 minutes 38 seconds 688 msec
