
                                 *****************
                                 * O   R   C   A *
                                 *****************

           --- An Ab Initio, DFT and Semiempirical electronic structure package ---

                  #######################################################
                  #                        -***-                        #
                  #          Department of theory and spectroscopy      #
                  #               Directorship: Frank Neese             #
                  #        Max Planck Institute fuer Kohlenforschung    #
                  #                Kaiser Wilhelm Platz 1               #
                  #                 D-45470 Muelheim/Ruhr               #
                  #                      Germany                        #
                  #                                                     #
                  #                  All rights reserved                #
                  #                        -***-                        #
                  #######################################################


                         Program Version 4.2.0 -  RELEASE  -


 With contributions from (in alphabetic order):
   Daniel Aravena         : Magnetic Suceptibility
   Michael Atanasov       : Ab Initio Ligand Field Theory (pilot matlab implementation)
   Alexander A. Auer      : GIAO ZORA, VPT2
   Ute Becker             : Parallelization
   Giovanni Bistoni       : ED, misc. LED, open-shell LED, HFLED
   Martin Brehm           : Molecular dynamics
   Dmytro Bykov           : SCF Hessian
   Vijay G. Chilkuri      : MRCI spin determinant printing, contributions to CSF-ICE
   Dipayan Datta          : RHF DLPNO-CCSD density
   Achintya Kumar Dutta   : EOM-CC, STEOM-CC
   Dmitry Ganyushin       : Spin-Orbit,Spin-Spin,Magnetic field MRCI
   Miquel Garcia          : C-PCM Hessian, Gaussian charge scheme
   Yang Guo               : DLPNO-NEVPT2, CIM, IAO-localization
   Andreas Hansen         : Spin unrestricted coupled pair/coupled cluster methods
   Benjamin Helmich-Paris : CASSCF linear response (MC-RPA)
   Lee Huntington         : MR-EOM, pCC
   Robert Izsak           : Overlap fitted RIJCOSX, COSX-SCS-MP3, EOM
   Christian Kollmar      : KDIIS, OOCD, Brueckner-CCSD(T), CCSD density
   Simone Kossmann        : Meta GGA functionals, TD-DFT gradient, OOMP2, MP2 Hessian
   Martin Krupicka        : AUTO-CI
   Lucas Lang             : DCDCAS
   Dagmar Lenk            : GEPOL surface, SMD
   Dimitrios Liakos       : Extrapolation schemes; Compound Job, initial MDCI parallelization
   Dimitrios Manganas     : Further ROCIS development; embedding schemes
   Dimitrios Pantazis     : SARC Basis sets
   Taras Petrenko         : DFT Hessian,TD-DFT gradient, ASA, ECA, R-Raman, ABS, FL, XAS/XES, NRVS
   Peter Pinski           : DLPNO-MP2, DLPNO-MP2 Gradient
   Christoph Reimann      : Effective Core Potentials
   Marius Retegan         : Local ZFS, SOC
   Christoph Riplinger    : Optimizer, TS searches, QM/MM, DLPNO-CCSD(T), (RO)-DLPNO pert. Triples
   Tobias Risthaus        : Range-separated hybrids, TD-DFT gradient, RPA, STAB
   Michael Roemelt        : Original ROCIS implementation
   Masaaki Saitow         : Open-shell DLPNO-CCSD energy and density
   Barbara Sandhoefer     : DKH picture change effects
   Avijit Sen             : IP-ROCIS
   Kantharuban Sivalingam : CASSCF convergence, NEVPT2, FIC-MRCI
   Bernardo de Souza      : ESD, SOC TD-DFT
   Georgi Stoychev        : AutoAux, RI-MP2 NMR
   Willem Van den Heuvel  : Paramagnetic NMR
   Boris Wezisla          : Elementary symmetry handling
   Frank Wennmohs         : Technical directorship


 We gratefully acknowledge several colleagues who have allowed us to
 interface, adapt or use parts of their codes:
   Stefan Grimme, W. Hujo, H. Kruse,             : VdW corrections, initial TS optimization,
                  C. Bannwarth                     DFT functionals, gCP, sTDA/sTD-DF
   Ed Valeev, F. Pavosevic, A. Kumar             : LibInt (2-el integral package), F12 methods
   Garnet Chan, S. Sharma, J. Yang, R. Olivares  : DMRG
   Ulf Ekstrom                                   : XCFun DFT Library
   Mihaly Kallay                                 : mrcc  (arbitrary order and MRCC methods)
   Andreas Klamt, Michael Diedenhofen            : otool_cosmo (COSMO solvation model)
   Jiri Pittner, Ondrej Demel                    : Mk-CCSD
   Frank Weinhold                                : gennbo (NPA and NBO analysis)
   Christopher J. Cramer and Donald G. Truhlar   : smd solvation model
   Lars Goerigk                                  : TD-DFT with DH, B97 family of functionals
   V. Asgeirsson, H. Jonsson                     : NEB implementation
   FAccTs GmbH                                   : IRC, NEB, NEB-TS, Multilevel, MM, QM/MM, CI optimization
   S Lehtola, MJT Oliveira, MAL Marques          : LibXC Library


 Your calculation uses the libint2 library for the computation of 2-el integrals
 For citations please refer to: http://libint.valeyev.net

 Your ORCA version has been built with support for libXC version: 4.2.3
 For citations please refer to: https://tddft.org/programs/libxc/

 This ORCA versions uses:
   CBLAS   interface :  Fast vector & matrix operations
   LAPACKE interface :  Fast linear algebra routines
   SCALAPACK package :  Parallel linear algebra routines


Your calculation utilizes the atom-pairwise dispersion correction
with the Becke-Johnson damping scheme (D3BJ)
Cite in your paper:
S.Grimme, S.Ehrlich, L.Goerigk, J Comput Chem, (2011), 32, 1456–1465 
S.Grimme, J.Antony, S.Ehrlich and H.Krieg, J.Chem.Phys., 132, (2010), 154104 
   

----- Orbital basis set information -----
Your calculation utilizes the basis: aug-cc-pV(T+d)Z 
             Al - Ar: T.H. Dunning, Jr., K. A. Peterson and A. K. Wilson, J. Chem. Phys.
                      114, 9244 (2001)

----- AuxJ basis set information -----
Your calculation utilizes the auxiliary basis: def2/J
   F. Weigend, Phys. Chem. Chem. Phys. 8, 1057 (2006).

================================================================================
                                        WARNINGS
                       Please study these warnings very carefully!
================================================================================


WARNING: Geometry Optimization
  ===> : Switching off AutoStart
         For restart on a previous wavefunction, please use MOREAD

INFO   : the flag for use of LIBINT has been found!

================================================================================
                                       INPUT FILE
================================================================================
NAME = 05_H2O_5.in
|  1> #
|  2> # 05_H2O_5 tpss/aug-cc-pvt(+d)z
|  3> #
|  4> ! tpss d3bj aug-cc-pvt(+d)z def2/j grid4 nofinalgrid opt xyzfile numfreq
|  5> 
|  6> *xyz 0 1
|  7> O	2.312927	0.150318	0.177415
|  8> O	0.864769	-2.137443	-0.15942
|  9> O	-1.781315	-1.498466	0.059758
| 10> O	-1.961951	1.234812	-0.062774
| 11> O	0.577396	2.241432	-0.075822
| 12> H	1.836849	-0.694236	0.04925
| 13> H	-0.089971	-1.943593	-0.076678
| 14> H	-1.915322	-0.530797	0.048103
| 15> H	-1.066728	1.628166	-0.074484
| 16> H	1.229463	1.522335	0.042111
| 17> H	2.825562	0.034681	0.978576
| 18> H	0.953988	-2.623745	-0.980296
| 19> H	-2.260123	-1.814802	0.826889
| 20> H	-2.472247	1.784461	0.533098
| 21> H	0.863928	2.71231	-0.859811
| 22> *
| 23> 
| 24> %maxcore 5000
| 25> 
| 26> %pal
| 27> nprocs 24
| 28> end
| 29> 
| 30> 
| 31>                          ****END OF INPUT****
================================================================================

                       *****************************
                       * Geometry Optimization Run *
                       *****************************

Geometry optimization settings:
Update method            Update   .... BFGS
Choice of coordinates    CoordSys .... Z-matrix Internals
Initial Hessian          InHess   .... Almoef's Model

Convergence Tolerances:
Energy Change            TolE     ....  5.0000e-06 Eh
Max. Gradient            TolMAXG  ....  3.0000e-04 Eh/bohr
RMS Gradient             TolRMSG  ....  1.0000e-04 Eh/bohr
Max. Displacement        TolMAXD  ....  4.0000e-03 bohr
RMS Displacement         TolRMSD  ....  2.0000e-03 bohr
Strict Convergence                ....  False
------------------------------------------------------------------------------
                        ORCA OPTIMIZATION COORDINATE SETUP
------------------------------------------------------------------------------

The optimization will be done in new redundant internal coordinates
Making redundant internal coordinates   ...  (new redundants) done
Evaluating the initial hessian          ...  (Almloef) done
Evaluating the coordinates              ...  done
Calculating the B-matrix                .... done
Calculating the G-matrix                .... done
Diagonalizing the G-matrix              .... done
The first mode is                       ....   20
The number of degrees of freedom        ....   39

    -----------------------------------------------------------------
                    Redundant Internal Coordinates


    -----------------------------------------------------------------
         Definition                    Initial Value    Approx d2E/dq
    -----------------------------------------------------------------
      1. B(H   5,O   0)                  0.9779         0.486810   
      2. B(H   5,O   1)                  1.7525         0.028285   
      3. B(H   6,O   2)                  1.7543         0.028105   
      4. B(H   6,O   1)                  0.9777         0.487172   
      5. B(H   7,O   2)                  0.9770         0.488525   
      6. B(H   7,O   3)                  1.7697         0.026555   
      7. B(H   8,O   4)                  1.7548         0.028051   
      8. B(H   8,O   3)                  0.9779         0.486865   
      9. B(H   9,O   0)                  1.7535         0.028187   
     10. B(H   9,O   4)                  0.9779         0.486946   
     11. B(H  10,O   0)                  0.9581         0.523528   
     12. B(H  11,O   1)                  0.9583         0.523266   
     13. B(H  12,O   2)                  0.9580         0.523739   
     14. B(H  13,O   3)                  0.9579         0.523976   
     15. B(H  14,O   4)                  0.9584         0.523087   
     16. A(H   9,O   0,H  10)          119.3112         0.209557   
     17. A(H   5,O   0,H   9)          111.3968         0.207590   
     18. A(H   5,O   0,H  10)          105.4158         0.318744   
     19. A(H   5,O   1,H   6)          111.6099         0.207702   
     20. A(H   5,O   1,H  11)          117.9216         0.209638   
     21. A(H   6,O   1,H  11)          105.3089         0.318757   
     22. A(H   7,O   2,H  12)          105.5483         0.318948   
     23. A(H   6,O   2,H  12)          117.4101         0.209489   
     24. A(H   6,O   2,H   7)          112.4976         0.207606   
     25. A(H   7,O   3,H  13)          123.1984         0.207964   
     26. A(H   8,O   3,H  13)          105.3267         0.318794   
     27. A(H   7,O   3,H   8)          112.2063         0.206002   
     28. A(H   9,O   4,H  14)          105.1062         0.318715   
     29. A(H   8,O   4,H  14)          116.9019         0.209403   
     30. A(H   8,O   4,H   9)          111.5732         0.207467   
     31. L(O   0,H   5,O   1,H   9, 2) 181.6716         0.207682   
     32. L(O   0,H   5,O   1,H   9, 1) 175.5995         0.207682   
     33. L(O   1,H   6,O   2,H   5, 2) 178.7819         0.207532   
     34. L(O   1,H   6,O   2,H   5, 1) 176.8415         0.207532   
     35. A(O   2,H   7,O   3)          173.0006         0.206092   
     36. L(O   3,H   8,O   4,H   7, 2) 180.5842         0.207463   
     37. L(O   3,H   8,O   4,H   7, 1) 176.7000         0.207463   
     38. L(O   0,H   9,O   4,H   8, 2) 183.5434         0.207597   
     39. L(O   0,H   9,O   4,H   8, 1) 176.1760         0.207597   
     40. D(H  11,O   1,O   0,H   9)    106.4348         0.001501   
     41. D(H   6,O   1,O   0,H   9)    -14.9279         0.001501   
     42. D(H   6,O   1,O   0,H  10)    114.8119         0.001501   
     43. D(H  11,O   1,O   0,H  10)   -123.8254         0.001501   
     44. D(H   7,O   2,O   1,H   5)     11.4802         0.001501   
     45. D(H  12,O   2,O   1,H  11)    120.8135         0.001501   
     46. D(H   7,O   2,O   1,H  11)   -116.8515         0.001501   
     47. D(H  12,O   2,O   1,H   5)   -110.8548         0.001501   
     48. D(H   9,O   4,O   3,H   7)     -3.7701         0.001501   
     49. D(H   9,O   4,O   3,H  13)    132.1214         0.001501   
     50. D(H   8,O   4,O   0,H  10)   -110.9981         0.001501   
     51. D(H   8,O   4,O   0,H   5)     11.9003         0.001501   
     52. D(H  14,O   4,O   0,H  10)    122.7980         0.001501   
     53. D(H  14,O   4,O   3,H  13)   -107.3675         0.001501   
     54. D(H  14,O   4,O   0,H   5)   -114.3036         0.001501   
     55. D(H  14,O   4,O   3,H   7)    116.7411         0.001501   
     56. D(O   2,H   7,O   3,H  13)   -152.6002         0.001881   
     57. D(O   2,H   7,O   3,H   8)    -25.1333         0.001881   
     58. D(O   3,H   7,O   2,H   6)     19.5321         0.294450   
     59. D(O   3,H   7,O   2,H  12)    148.7623         0.294450   
    -----------------------------------------------------------------

Number of atoms                         .... 15
Number of degrees of freedom            .... 59

         *************************************************************
         *                GEOMETRY OPTIMIZATION CYCLE   1            *
         *************************************************************
---------------------------------
CARTESIAN COORDINATES (ANGSTROEM)
---------------------------------
  O      2.312927    0.150318    0.177415
  O      0.864769   -2.137443   -0.159420
  O     -1.781315   -1.498466    0.059758
  O     -1.961951    1.234812   -0.062774
  O      0.577396    2.241432   -0.075822
  H      1.836849   -0.694236    0.049250
  H     -0.089971   -1.943593   -0.076678
  H     -1.915322   -0.530797    0.048103
  H     -1.066728    1.628166   -0.074484
  H      1.229463    1.522335    0.042111
  H      2.825562    0.034681    0.978576
  H      0.953988   -2.623745   -0.980296
  H     -2.260123   -1.814802    0.826889
  H     -2.472247    1.784461    0.533098
  H      0.863928    2.712310   -0.859811

----------------------------
CARTESIAN COORDINATES (A.U.)
----------------------------
  NO LB      ZA    FRAG     MASS         X           Y           Z
   0 O     8.0000    0    15.999    4.370799    0.284060    0.335266
   1 O     8.0000    0    15.999    1.634177   -4.039182   -0.301260
   2 O     8.0000    0    15.999   -3.366198   -2.831690    0.112926
   3 O     8.0000    0    15.999   -3.707550    2.333457   -0.118626
   4 O     8.0000    0    15.999    1.091120    4.235693   -0.143283
   5 H     1.0000    0     1.008    3.471142   -1.311916    0.093069
   6 H     1.0000    0     1.008   -0.170021   -3.672858   -0.144900
   7 H     1.0000    0     1.008   -3.619434   -1.003061    0.090901
   8 H     1.0000    0     1.008   -2.015824    3.076788   -0.140754
   9 H     1.0000    0     1.008    2.323348    2.876796    0.079578
  10 H     1.0000    0     1.008    5.339538    0.065538    1.849241
  11 H     1.0000    0     1.008    1.802776   -4.958159   -1.852491
  12 H     1.0000    0     1.008   -4.271013   -3.429479    1.562594
  13 H     1.0000    0     1.008   -4.671870    3.372143    1.007409
  14 H     1.0000    0     1.008    1.632587    5.125523   -1.624807

--------------------------------
INTERNAL COORDINATES (ANGSTROEM)
--------------------------------
 O      0   0   0     0.000000000000     0.00000000     0.00000000
 O      1   0   0     2.728455571071     0.00000000     0.00000000
 O      2   1   0     2.730950592242   107.94925627     0.00000000
 O      3   2   1     2.741979591610   107.06628089    13.09730221
 O      1   2   3     2.729277301984   107.06549532   344.98490806
 H      1   2   3     0.977930461856     2.93309900   181.59899752
 H      2   1   3     0.977728248883   109.97391047   359.38512925
 H      3   2   1     0.976973391979   111.32718232    11.52866055
 H      4   3   2     0.977900154998   109.94962754   354.18953913
 H      5   1   2     0.977854825824     2.96622939   156.26657087
 H      1   2   3     0.958136476143   106.61897896   115.42672130
 H      2   1   3     0.958272963482   118.80609298   120.74784289
 H      3   2   1     0.958026897807   118.11621857   249.19366164
 H      4   3   2     0.957903685764   125.39988308   227.11000997
 H      5   1   2     0.958366020907   105.20261475   244.80497783

---------------------------
INTERNAL COORDINATES (A.U.)
---------------------------
 O      0   0   0     0.000000000000     0.00000000     0.00000000
 O      1   0   0     5.156033797896     0.00000000     0.00000000
 O      2   1   0     5.160748704608   107.94925627     0.00000000
 O      3   2   1     5.181590492944   107.06628089    13.09730221
 O      1   2   3     5.157586644278   107.06549532   344.98490806
 H      1   2   3     1.848020750926     2.93309900   181.59899752
 H      2   1   3     1.847638623787   109.97391047   359.38512925
 H      3   2   1     1.846212150968   111.32718232    11.52866055
 H      4   3   2     1.847963479265   109.94962754   354.18953913
 H      5   1   2     1.847877819540     2.96622939   156.26657087
 H      1   2   3     1.810615538830   106.61897896   115.42672130
 H      2   1   3     1.810873462523   118.80609298   120.74784289
 H      3   2   1     1.810408465785   118.11621857   249.19366164
 H      4   3   2     1.810175628768   125.39988308   227.11000997
 H      5   1   2     1.811049315570   105.20261475   244.80497783

---------------------
BASIS SET INFORMATION
---------------------
There are 2 groups of distinct atoms

 Group   1 Type O   : 19s6p3d2f contracted to 5s4p3d2f pattern {88111/3111/111/11}
 Group   2 Type H   : 6s3p2d contracted to 4s3p2d pattern {3111/111/11}

Atom   0O    basis set group =>   1
Atom   1O    basis set group =>   1
Atom   2O    basis set group =>   1
Atom   3O    basis set group =>   1
Atom   4O    basis set group =>   1
Atom   5H    basis set group =>   2
Atom   6H    basis set group =>   2
Atom   7H    basis set group =>   2
Atom   8H    basis set group =>   2
Atom   9H    basis set group =>   2
Atom  10H    basis set group =>   2
Atom  11H    basis set group =>   2
Atom  12H    basis set group =>   2
Atom  13H    basis set group =>   2
Atom  14H    basis set group =>   2
---------------------------------
AUXILIARY/J BASIS SET INFORMATION
---------------------------------
There are 2 groups of distinct atoms

 Group   1 Type O   : 12s5p4d2f1g contracted to 6s4p3d1f1g pattern {711111/2111/211/2/1}
 Group   2 Type H   : 5s2p1d contracted to 3s1p1d pattern {311/2/1}

Atom   0O    basis set group =>   1
Atom   1O    basis set group =>   1
Atom   2O    basis set group =>   1
Atom   3O    basis set group =>   1
Atom   4O    basis set group =>   1
Atom   5H    basis set group =>   2
Atom   6H    basis set group =>   2
Atom   7H    basis set group =>   2
Atom   8H    basis set group =>   2
Atom   9H    basis set group =>   2
Atom  10H    basis set group =>   2
Atom  11H    basis set group =>   2
Atom  12H    basis set group =>   2
Atom  13H    basis set group =>   2
Atom  14H    basis set group =>   2


           ************************************************************
           *        Program running with 24 parallel MPI-processes    *
           *              working on a common directory               *
           ************************************************************
------------------------------------------------------------------------------
                           ORCA GTO INTEGRAL CALCULATION
                           -- RI-GTO INTEGRALS CHOSEN --
------------------------------------------------------------------------------

                         BASIS SET STATISTICS AND STARTUP INFO

Gaussian basis set:
 # of primitive gaussian shells          ...  260
 # of primitive gaussian functions       ...  580
 # of contracted shells                  ...  160
 # of contracted basis functions         ...  460
 Highest angular momentum                ...    3
 Maximum contraction depth               ...    8
Auxiliary gaussian basis set:
 # of primitive gaussian shells          ...  200
 # of primitive gaussian functions       ...  510
 # of contracted shells                  ...  125
 # of contracted aux-basis functions     ...  355
 Highest angular momentum                ...    4
 Maximum contraction depth               ...    7
Ratio of auxiliary to basis functions    ...  0.77
Integral package used                  ... LIBINT
 One Electron integrals                  ... done
 Ordering auxiliary basis shells         ... done
 Integral threshhold             Thresh  ...  2.500e-11
 Primitive cut-off               TCut    ...  2.500e-12
 Pre-screening matrix                    ... done
 Shell pair data                         ... 
 Ordering of the shell pairs             ... done (   0.002 sec) 12013 of 12880 pairs
 Determination of significant pairs      ... done (   0.000 sec)
 Creation of shell pair data             ... done (   0.001 sec)
 Storage of shell pair data              ... done (   0.021 sec)
 Shell pair data done in (   0.025 sec)
 Computing two index integrals           ... done
 Cholesky decomposition of the V-matrix  ... done


Timings:
 Total evaluation time                   ...   0.394 sec (  0.007 min)
 One electron matrix time                ...   0.102 sec (  0.002 min) = 25.9%
 Schwartz matrix evaluation time         ...   0.167 sec (  0.003 min) = 42.5%
 Two index repulsion integral time       ...   0.002 sec (  0.000 min) =  0.6%
 Cholesky decomposition of V             ...   0.073 sec (  0.001 min) = 18.6%
 Three index repulsion integral time     ...   0.000 sec (  0.000 min) =  0.0%



           ************************************************************
           *        Program running with 24 parallel MPI-processes    *
           *              working on a common directory               *
           ************************************************************
-------------------------------------------------------------------------------
                                 ORCA SCF
-------------------------------------------------------------------------------

------------
SCF SETTINGS
------------
Hamiltonian:
 Density Functional     Method          .... DFT(GTOs)
 Exchange Functional    Exchange        .... TPSS
 Correlation Functional Correlation     .... TPSS
 LDA part of GGA corr.  LDAOpt          .... PW91-LDA
 Gradients option       PostSCFGGA      .... off
   Density functional embedding theory  .... OFF
   NL short-range parameter             ....  5.000000
 RI-approximation to the Coulomb term is turned on
   Number of auxiliary basis functions  .... 355


General Settings:
 Integral files         IntName         .... 05_H2O_5
 Hartree-Fock type      HFTyp           .... RHF
 Total Charge           Charge          ....    0
 Multiplicity           Mult            ....    1
 Number of Electrons    NEL             ....   50
 Basis Dimension        Dim             ....  460
 Nuclear Repulsion      ENuc            ....    202.7548338254 Eh

Convergence Acceleration:
 DIIS                   CNVDIIS         .... on
   Start iteration      DIISMaxIt       ....    12
   Startup error        DIISStart       ....  0.200000
   # of expansion vecs  DIISMaxEq       ....     5
   Bias factor          DIISBfac        ....   1.050
   Max. coefficient     DIISMaxC        ....  10.000
 Newton-Raphson         CNVNR           .... off
 SOSCF                  CNVSOSCF        .... on
   Start iteration      SOSCFMaxIt      ....   150
   Startup grad/error   SOSCFStart      ....  0.003300
 Level Shifting         CNVShift        .... on
   Level shift para.    LevelShift      ....    0.2500
   Turn off err/grad.   ShiftErr        ....    0.0010
 Zerner damping         CNVZerner       .... off
 Static damping         CNVDamp         .... on
   Fraction old density DampFac         ....    0.7000
   Max. Damping (<1)    DampMax         ....    0.9800
   Min. Damping (>=0)   DampMin         ....    0.0000
   Turn off err/grad.   DampErr         ....    0.1000
 Fernandez-Rico         CNVRico         .... off

SCF Procedure:
 Maximum # iterations   MaxIter         ....   125
 SCF integral mode      SCFMode         .... Direct
   Integral package                     .... LIBINT
 Reset frequency        DirectResetFreq ....    20
 Integral Threshold     Thresh          ....  2.500e-11 Eh
 Primitive CutOff       TCut            ....  2.500e-12 Eh

Convergence Tolerance:
 Convergence Check Mode ConvCheckMode   .... Total+1el-Energy
 Convergence forced     ConvForced      .... 0
 Energy Change          TolE            ....  1.000e-08 Eh
 1-El. energy change                    ....  1.000e-05 Eh
 Orbital Gradient       TolG            ....  1.000e-05
 Orbital Rotation angle TolX            ....  1.000e-05
 DIIS Error             TolErr          ....  5.000e-07


Diagonalization of the overlap matrix:
Smallest eigenvalue                        ... 1.108e-04
Time for diagonalization                   ...    0.047 sec
Threshold for overlap eigenvalues          ... 1.000e-08
Number of eigenvalues below threshold      ... 0
Time for construction of square roots      ...    0.026 sec
Total time needed                          ...    0.075 sec

-------------------
DFT GRID GENERATION
-------------------

General Integration Accuracy     IntAcc      ...  4.670
Radial Grid Type                 RadialGrid  ... Gauss-Chebyshev
Angular Grid (max. acc.)         AngularGrid ... Lebedev-302
Angular grid pruning method      GridPruning ... 3 (G Style)
Weight generation scheme         WeightScheme... Becke
Basis function cutoff            BFCut       ...    1.0000e-11
Integration weight cutoff        WCut        ...    1.0000e-14
Grids for H and He will be reduced by one unit

# of grid points (after initial pruning)     ...  65000 (   0.0 sec)
# of grid points (after weights+screening)   ...  61006 (   0.0 sec)
nearest neighbour list constructed           ...    0.0 sec
Grid point re-assignment to atoms done       ...    0.0 sec
Grid point division into batches done        ...    0.2 sec
Reduced shell lists constructed in    0.2 sec

Total number of grid points                  ...    61006
Total number of batches                      ...      960
Average number of points per batch           ...       63
Average number of grid points per atom       ...     4067
Average number of shells per batch           ...   106.54 (66.59%)
Average number of basis functions per batch  ...   293.37 (63.78%)
Average number of large shells per batch     ...    85.71 (80.45%)
Average number of large basis fcns per batch ...   229.17 (78.12%)
Maximum spatial batch extension              ...  11.76, 10.65,  8.33 au
Average spatial batch extension              ...   0.09,  0.09,  0.08 au

Time for grid setup =    0.288 sec

------------------------------
INITIAL GUESS: MODEL POTENTIAL
------------------------------
Loading Hartree-Fock densities                     ... done
Calculating cut-offs                               ... done
Setting up the integral package                    ... done
Initializing the effective Hamiltonian             ... done
Starting the Coulomb interaction                   ... done (   0.0 sec)
Reading the grid                                   ... done
Mapping shells                                     ... done
Starting the XC term evaluation                    ... done (   0.1 sec)
  promolecular density results
     # of electrons  =     49.994577283
     EX              =    -43.711140706
     EC              =     -1.615606768
     EX+EC           =    -45.326747474
Transforming the Hamiltonian                       ... done (   0.0 sec)
Diagonalizing the Hamiltonian                      ... done (   0.0 sec)
Back transforming the eigenvectors                 ... done (   0.0 sec)
Now organizing SCF variables                       ... done
                      ------------------
                      INITIAL GUESS DONE (   0.5 sec)
                      ------------------
--------------
SCF ITERATIONS
--------------
ITER       Energy         Delta-E        Max-DP      RMS-DP      [F,P]     Damp
               ***  Starting incremental Fock matrix formation  ***
  0   -382.0099568828   0.000000000000 0.08276159  0.00106184  0.3160734 0.7000
  1   -382.2068548543  -0.196897971466 0.03990247  0.00058987  0.1120945 0.7000
                               ***Turning on DIIS***
  2   -382.2608708880  -0.054016033749 0.04936564  0.00068251  0.0251276 0.0000
  3   -382.3709145795  -0.110043691422 0.01491243  0.00027491  0.0658288 0.0000
  4   -382.3887186390  -0.017804059512 0.00325162  0.00006897  0.0124793 0.0000
                      *** Initiating the SOSCF procedure ***
                           *** Shutting down DIIS ***
                      *** Re-Reading the Fockian *** 
                      *** Removing any level shift *** 
ITER      Energy       Delta-E        Grad      Rot      Max-DP    RMS-DP
  5   -382.38968169  -0.0009630465  0.000677  0.000677  0.002005  0.000034
               *** Restarting incremental Fock matrix formation ***
  6   -382.38974343  -0.0000617447  0.000371  0.001218  0.002892  0.000039
  7   -382.38974150   0.0000019270  0.000367  0.000188  0.000903  0.000013
  8   -382.38975334  -0.0000118417  0.000050  0.000188  0.000580  0.000008
  9   -382.38975356  -0.0000002128  0.000033  0.000028  0.000095  0.000001
 10   -382.38975363  -0.0000000702  0.000022  0.000051  0.000192  0.000003
 11   -382.38975369  -0.0000000620  0.000006  0.000019  0.000056  0.000001
 12   -382.38975369  -0.0000000039  0.000003  0.000003  0.000010  0.000000
                  ***Gradient check signals convergence***
              ***Rediagonalizing the Fockian in SOSCF/NRSCF***

               *****************************************************
               *                     SUCCESS                       *
               *           SCF CONVERGED AFTER  13 CYCLES          *
               *****************************************************


----------------
TOTAL SCF ENERGY
----------------

Total Energy       :         -382.38975368 Eh          -10405.35420 eV

Components:
Nuclear Repulsion  :          202.75483383 Eh            5517.23952 eV
Electronic Energy  :         -585.14458751 Eh          -15922.59372 eV
One Electron Energy:         -929.03933580 Eh          -25280.44556 eV
Two Electron Energy:          343.89474829 Eh            9357.85185 eV

Virial components:
Potential Energy   :         -763.01451665 Eh          -20762.68055 eV
Kinetic Energy     :          380.62476297 Eh           10357.32636 eV
Virial Ratio       :            2.00463709


DFT components:
N(Alpha)           :       24.999857483575 electrons
N(Beta)            :       24.999857483575 electrons
N(Total)           :       49.999714967150 electrons
E(X)               :      -45.080806663658 Eh       
E(C)               :       -1.660314475269 Eh       
E(XC)              :      -46.741121138927 Eh       
DFET-embed. en.    :        0.000000000000 Eh       

---------------
SCF CONVERGENCE
---------------

  Last Energy change         ...    1.1083e-08  Tolerance :   1.0000e-08
  Last MAX-Density change    ...    1.3371e-05  Tolerance :   1.0000e-07
  Last RMS-Density change    ...    1.8099e-07  Tolerance :   5.0000e-09
  Last Orbital Gradient      ...    2.3669e-06  Tolerance :   1.0000e-05
  Last Orbital Rotation      ...    4.4400e-06  Tolerance :   1.0000e-05

             **** THE GBW FILE WAS UPDATED (05_H2O_5.gbw) ****
             **** DENSITY FILE WAS UPDATED (05_H2O_5.scfp) ****
             **** ENERGY FILE WAS UPDATED (05_H2O_5.en.tmp) ****
             **** THE GBW FILE WAS UPDATED (05_H2O_5.gbw) ****
             **** DENSITY FILE WAS UPDATED (05_H2O_5.scfp) ****
----------------
ORBITAL ENERGIES
----------------

  NO   OCC          E(Eh)            E(eV) 
   0   2.0000     -18.883025      -513.8332 
   1   2.0000     -18.881852      -513.8013 
   2   2.0000     -18.881672      -513.7964 
   3   2.0000     -18.881401      -513.7890 
   4   2.0000     -18.880968      -513.7773 
   5   2.0000      -0.956217       -26.0200 
   6   2.0000      -0.948235       -25.8028 
   7   2.0000      -0.947516       -25.7832 
   8   2.0000      -0.934362       -25.4253 
   9   2.0000      -0.933534       -25.4027 
  10   2.0000      -0.490107       -13.3365 
  11   2.0000      -0.486088       -13.2271 
  12   2.0000      -0.484133       -13.1739 
  13   2.0000      -0.481047       -13.0900 
  14   2.0000      -0.479632       -13.0514 
  15   2.0000      -0.379409       -10.3243 
  16   2.0000      -0.376769       -10.2524 
  17   2.0000      -0.339648        -9.2423 
  18   2.0000      -0.337543        -9.1850 
  19   2.0000      -0.312664        -8.5080 
  20   2.0000      -0.272947        -7.4273 
  21   2.0000      -0.269680        -7.3384 
  22   2.0000      -0.268369        -7.3027 
  23   2.0000      -0.267576        -7.2811 
  24   2.0000      -0.263384        -7.1670 
  25   0.0000      -0.032723        -0.8904 
  26   0.0000      -0.010837        -0.2949 
  27   0.0000      -0.008623        -0.2346 
  28   0.0000       0.006386         0.1738 
  29   0.0000       0.013734         0.3737 
  30   0.0000       0.037211         1.0126 
  31   0.0000       0.043307         1.1785 
  32   0.0000       0.043928         1.1953 
  33   0.0000       0.048787         1.3276 
  34   0.0000       0.064096         1.7441 
  35   0.0000       0.078612         2.1391 
  36   0.0000       0.082191         2.2365 
  37   0.0000       0.083659         2.2765 
  38   0.0000       0.084882         2.3098 
  39   0.0000       0.098066         2.6685 
  40   0.0000       0.100559         2.7363 
  41   0.0000       0.102540         2.7903 
  42   0.0000       0.106190         2.8896 
  43   0.0000       0.125016         3.4018 
  44   0.0000       0.129112         3.5133 
  45   0.0000       0.133882         3.6431 
  46   0.0000       0.141000         3.8368 
  47   0.0000       0.147763         4.0208 
  48   0.0000       0.152725         4.1559 
  49   0.0000       0.154454         4.2029 
  50   0.0000       0.160905         4.3785 
  51   0.0000       0.169739         4.6188 
  52   0.0000       0.174531         4.7492 
  53   0.0000       0.178960         4.8698 
  54   0.0000       0.184158         5.0112 
  55   0.0000       0.191606         5.2139 
  56   0.0000       0.194147         5.2830 
  57   0.0000       0.201087         5.4719 
  58   0.0000       0.210954         5.7404 
  59   0.0000       0.215821         5.8728 
  60   0.0000       0.221981         6.0404 
  61   0.0000       0.241590         6.5740 
  62   0.0000       0.254629         6.9288 
  63   0.0000       0.256515         6.9801 
  64   0.0000       0.268766         7.3135 
  65   0.0000       0.271945         7.4000 
  66   0.0000       0.272240         7.4080 
  67   0.0000       0.285984         7.7820 
  68   0.0000       0.298563         8.1243 
  69   0.0000       0.300915         8.1883 
  70   0.0000       0.303800         8.2668 
  71   0.0000       0.311767         8.4836 
  72   0.0000       0.317501         8.6397 
  73   0.0000       0.324058         8.8181 
  74   0.0000       0.327973         8.9246 
  75   0.0000       0.330551         8.9948 
  76   0.0000       0.333869         9.0850 
  77   0.0000       0.335222         9.1219 
  78   0.0000       0.338739         9.2175 
  79   0.0000       0.346658         9.4331 
  80   0.0000       0.348682         9.4881 
  81   0.0000       0.352299         9.5865 
  82   0.0000       0.362654         9.8683 
  83   0.0000       0.367356         9.9963 
  84   0.0000       0.375685        10.2229 
  85   0.0000       0.378727        10.3057 
  86   0.0000       0.389214        10.5911 
  87   0.0000       0.393451        10.7063 
  88   0.0000       0.403233        10.9725 
  89   0.0000       0.404991        11.0204 
  90   0.0000       0.446085        12.1386 
  91   0.0000       0.452201        12.3050 
  92   0.0000       0.460224        12.5233 
  93   0.0000       0.467610        12.7243 
  94   0.0000       0.478268        13.0143 
  95   0.0000       0.481413        13.0999 
  96   0.0000       0.512809        13.9542 
  97   0.0000       0.525828        14.3085 
  98   0.0000       0.532686        14.4951 
  99   0.0000       0.557948        15.1825 
 100   0.0000       0.562153        15.2970 
 101   0.0000       0.579034        15.7563 
 102   0.0000       0.583059        15.8658 
 103   0.0000       0.585937        15.9441 
 104   0.0000       0.606596        16.5063 
 105   0.0000       0.609210        16.5774 
 106   0.0000       0.628932        17.1141 
 107   0.0000       0.638489        17.3742 
 108   0.0000       0.651528        17.7290 
 109   0.0000       0.653766        17.7899 
 110   0.0000       0.667822        18.1724 
 111   0.0000       0.673015        18.3137 
 112   0.0000       0.685901        18.6643 
 113   0.0000       0.686968        18.6934 
 114   0.0000       0.707027        19.2392 
 115   0.0000       0.716448        19.4956 
 116   0.0000       0.719574        19.5806 
 117   0.0000       0.726366        19.7654 
 118   0.0000       0.736661        20.0456 
 119   0.0000       0.745419        20.2839 
 120   0.0000       0.758177        20.6311 
 121   0.0000       0.770980        20.9794 
 122   0.0000       0.774595        21.0778 
 123   0.0000       0.779590        21.2137 
 124   0.0000       0.782046        21.2806 
 125   0.0000       0.790230        21.5033 
 126   0.0000       0.800575        21.7848 
 127   0.0000       0.808237        21.9933 
 128   0.0000       0.817528        22.2461 
 129   0.0000       0.819079        22.2883 
 130   0.0000       0.822342        22.3771 
 131   0.0000       0.831390        22.6233 
 132   0.0000       0.832285        22.6476 
 133   0.0000       0.835839        22.7443 
 134   0.0000       0.844821        22.9887 
 135   0.0000       0.850109        23.1326 
 136   0.0000       0.855010        23.2660 
 137   0.0000       0.860762        23.4225 
 138   0.0000       0.864712        23.5300 
 139   0.0000       0.882276        24.0080 
 140   0.0000       0.889934        24.2163 
 141   0.0000       0.892966        24.2988 
 142   0.0000       0.899722        24.4827 
 143   0.0000       0.907922        24.7058 
 144   0.0000       0.918991        25.0070 
 145   0.0000       0.935311        25.4511 
 146   0.0000       0.947143        25.7731 
 147   0.0000       0.958753        26.0890 
 148   0.0000       0.967319        26.3221 
 149   0.0000       0.969399        26.3787 
 150   0.0000       1.006145        27.3786 
 151   0.0000       1.011602        27.5271 
 152   0.0000       1.015655        27.6374 
 153   0.0000       1.021906        27.8075 
 154   0.0000       1.030511        28.0416 
 155   0.0000       1.042824        28.3767 
 156   0.0000       1.047600        28.5066 
 157   0.0000       1.053122        28.6569 
 158   0.0000       1.070764        29.1370 
 159   0.0000       1.074222        29.2311 
 160   0.0000       1.082729        29.4626 
 161   0.0000       1.088259        29.6130 
 162   0.0000       1.096879        29.8476 
 163   0.0000       1.111466        30.2445 
 164   0.0000       1.116723        30.3876 
 165   0.0000       1.126698        30.6590 
 166   0.0000       1.134572        30.8733 
 167   0.0000       1.144941        31.1554 
 168   0.0000       1.167023        31.7563 
 169   0.0000       1.171567        31.8800 
 170   0.0000       1.175551        31.9884 
 171   0.0000       1.187908        32.3246 
 172   0.0000       1.197881        32.5960 
 173   0.0000       1.204877        32.7864 
 174   0.0000       1.215027        33.0626 
 175   0.0000       1.219914        33.1955 
 176   0.0000       1.233252        33.5585 
 177   0.0000       1.240527        33.7565 
 178   0.0000       1.248588        33.9758 
 179   0.0000       1.257387        34.2152 
 180   0.0000       1.294601        35.2279 
 181   0.0000       1.302009        35.4295 
 182   0.0000       1.311860        35.6975 
 183   0.0000       1.315530        35.7974 
 184   0.0000       1.347812        36.6758 
 185   0.0000       1.351711        36.7819 
 186   0.0000       1.363864        37.1126 
 187   0.0000       1.375820        37.4380 
 188   0.0000       1.384416        37.6719 
 189   0.0000       1.403430        38.1893 
 190   0.0000       1.420032        38.6410 
 191   0.0000       1.423983        38.7486 
 192   0.0000       1.434263        39.0283 
 193   0.0000       1.468230        39.9526 
 194   0.0000       1.485865        40.4324 
 195   0.0000       1.500808        40.8391 
 196   0.0000       1.515748        41.2456 
 197   0.0000       1.533056        41.7166 
 198   0.0000       1.541788        41.9542 
 199   0.0000       1.550560        42.1929 
 200   0.0000       1.571900        42.7736 
 201   0.0000       1.580508        43.0078 
 202   0.0000       1.596657        43.4472 
 203   0.0000       1.598201        43.4893 
 204   0.0000       1.601463        43.5780 
 205   0.0000       1.614983        43.9459 
 206   0.0000       1.620490        44.0958 
 207   0.0000       1.645102        44.7655 
 208   0.0000       1.661597        45.2143 
 209   0.0000       1.670381        45.4534 
 210   0.0000       1.687162        45.9100 
 211   0.0000       1.694831        46.1187 
 212   0.0000       1.708158        46.4813 
 213   0.0000       1.752753        47.6948 
 214   0.0000       1.771050        48.1927 
 215   0.0000       1.789998        48.7083 
 216   0.0000       1.793777        48.8112 
 217   0.0000       1.810180        49.2575 
 218   0.0000       1.832623        49.8682 
 219   0.0000       1.843560        50.1658 
 220   0.0000       1.885078        51.2956 
 221   0.0000       1.888769        51.3960 
 222   0.0000       1.901977        51.7554 
 223   0.0000       1.950431        53.0739 
 224   0.0000       1.953736        53.1639 
 225   0.0000       2.012337        54.7585 
 226   0.0000       2.089774        56.8656 
 227   0.0000       2.094571        56.9962 
 228   0.0000       2.099736        57.1367 
 229   0.0000       2.109504        57.4025 
 230   0.0000       2.115401        57.5630 
 231   0.0000       2.136420        58.1349 
 232   0.0000       2.138406        58.1890 
 233   0.0000       2.178270        59.2737 
 234   0.0000       2.197290        59.7913 
 235   0.0000       2.209953        60.1359 
 236   0.0000       2.220682        60.4278 
 237   0.0000       2.225000        60.5453 
 238   0.0000       2.232661        60.7538 
 239   0.0000       2.245981        61.1163 
 240   0.0000       2.260031        61.4986 
 241   0.0000       2.265480        61.6468 
 242   0.0000       2.275871        61.9296 
 243   0.0000       2.289424        62.2984 
 244   0.0000       2.302641        62.6580 
 245   0.0000       2.313136        62.9436 
 246   0.0000       2.318820        63.0983 
 247   0.0000       2.328458        63.3606 
 248   0.0000       2.353388        64.0390 
 249   0.0000       2.369052        64.4652 
 250   0.0000       2.376088        64.6566 
 251   0.0000       2.397602        65.2421 
 252   0.0000       2.404944        65.4418 
 253   0.0000       2.417310        65.7784 
 254   0.0000       2.427610        66.0586 
 255   0.0000       2.460917        66.9650 
 256   0.0000       2.472928        67.2918 
 257   0.0000       2.480883        67.5083 
 258   0.0000       2.489961        67.7553 
 259   0.0000       2.498952        67.9999 
 260   0.0000       2.521232        68.6062 
 261   0.0000       2.541086        69.1465 
 262   0.0000       2.561772        69.7094 
 263   0.0000       2.575448        70.0815 
 264   0.0000       2.576451        70.1088 
 265   0.0000       2.595719        70.6331 
 266   0.0000       2.616166        71.1895 
 267   0.0000       2.625057        71.4314 
 268   0.0000       2.652850        72.1877 
 269   0.0000       2.658605        72.3443 
 270   0.0000       2.688785        73.1656 
 271   0.0000       2.693171        73.2849 
 272   0.0000       2.698716        73.4358 
 273   0.0000       2.708905        73.7131 
 274   0.0000       2.737482        74.4907 
 275   0.0000       2.753643        74.9304 
 276   0.0000       2.769902        75.3729 
 277   0.0000       2.774336        75.4935 
 278   0.0000       2.781121        75.6781 
 279   0.0000       2.806871        76.3789 
 280   0.0000       2.814265        76.5800 
 281   0.0000       2.836194        77.1768 
 282   0.0000       2.860610        77.8412 
 283   0.0000       2.893116        78.7257 
 284   0.0000       2.910344        79.1945 
 285   0.0000       2.933327        79.8199 
 286   0.0000       2.940732        80.0214 
 287   0.0000       2.957026        80.4648 
 288   0.0000       2.969222        80.7966 
 289   0.0000       3.018195        82.1293 
 290   0.0000       3.557220        96.7969 
 291   0.0000       3.569228        97.1236 
 292   0.0000       3.583107        97.5013 
 293   0.0000       3.590161        97.6933 
 294   0.0000       3.598263        97.9137 
 295   0.0000       3.810772       103.6964 
 296   0.0000       3.831641       104.2642 
 297   0.0000       3.836341       104.3921 
 298   0.0000       3.846011       104.6553 
 299   0.0000       3.851532       104.8055 
 300   0.0000       3.866604       105.2156 
 301   0.0000       3.871176       105.3401 
 302   0.0000       3.874954       105.4429 
 303   0.0000       3.888588       105.8139 
 304   0.0000       3.908271       106.3495 
 305   0.0000       3.947917       107.4283 
 306   0.0000       3.958134       107.7063 
 307   0.0000       3.964237       107.8724 
 308   0.0000       3.972329       108.0926 
 309   0.0000       3.983017       108.3834 
 310   0.0000       3.987094       108.4943 
 311   0.0000       3.993747       108.6754 
 312   0.0000       4.005278       108.9892 
 313   0.0000       4.016586       109.2969 
 314   0.0000       4.035276       109.8054 
 315   0.0000       4.045288       110.0779 
 316   0.0000       4.053457       110.3002 
 317   0.0000       4.071223       110.7836 
 318   0.0000       4.096071       111.4598 
 319   0.0000       4.121099       112.1408 
 320   0.0000       4.189014       113.9889 
 321   0.0000       4.205437       114.4358 
 322   0.0000       4.225034       114.9690 
 323   0.0000       4.235077       115.2423 
 324   0.0000       4.243249       115.4647 
 325   0.0000       4.255679       115.8029 
 326   0.0000       4.272558       116.2622 
 327   0.0000       4.284120       116.5768 
 328   0.0000       4.296001       116.9001 
 329   0.0000       4.301922       117.0612 
 330   0.0000       4.310570       117.2966 
 331   0.0000       4.322760       117.6283 
 332   0.0000       4.328089       117.7733 
 333   0.0000       4.338323       118.0518 
 334   0.0000       4.344527       118.2206 
 335   0.0000       4.362427       118.7077 
 336   0.0000       4.371362       118.9508 
 337   0.0000       4.386044       119.3503 
 338   0.0000       4.394733       119.5868 
 339   0.0000       4.403890       119.8359 
 340   0.0000       4.407829       119.9431 
 341   0.0000       4.417663       120.2107 
 342   0.0000       4.443973       120.9267 
 343   0.0000       4.450897       121.1151 
 344   0.0000       4.480605       121.9235 
 345   0.0000       4.555538       123.9625 
 346   0.0000       4.582412       124.6938 
 347   0.0000       4.603007       125.2542 
 348   0.0000       4.621675       125.7622 
 349   0.0000       4.635591       126.1409 
 350   0.0000       4.712111       128.2231 
 351   0.0000       4.733349       128.8010 
 352   0.0000       4.739142       128.9586 
 353   0.0000       4.768864       129.7674 
 354   0.0000       4.772621       129.8696 
 355   0.0000       4.844858       131.8353 
 356   0.0000       4.855454       132.1236 
 357   0.0000       4.862737       132.3218 
 358   0.0000       4.872331       132.5829 
 359   0.0000       4.918909       133.8503 
 360   0.0000       4.923205       133.9672 
 361   0.0000       4.935927       134.3134 
 362   0.0000       4.971769       135.2887 
 363   0.0000       5.019250       136.5807 
 364   0.0000       5.028086       136.8212 
 365   0.0000       5.038217       137.0969 
 366   0.0000       5.052247       137.4786 
 367   0.0000       5.055772       137.5746 
 368   0.0000       5.062143       137.7479 
 369   0.0000       5.072012       138.0164 
 370   0.0000       5.108066       138.9975 
 371   0.0000       5.127241       139.5193 
 372   0.0000       5.162902       140.4897 
 373   0.0000       5.179439       140.9397 
 374   0.0000       5.187157       141.1497 
 375   0.0000       5.264998       143.2679 
 376   0.0000       5.307632       144.4280 
 377   0.0000       5.337520       145.2413 
 378   0.0000       5.368745       146.0910 
 379   0.0000       5.394992       146.8052 
 380   0.0000       5.535412       150.6262 
 381   0.0000       5.548814       150.9909 
 382   0.0000       5.578841       151.8080 
 383   0.0000       5.583563       151.9365 
 384   0.0000       5.621951       152.9811 
 385   0.0000       5.984693       162.8518 
 386   0.0000       6.002539       163.3374 
 387   0.0000       6.019909       163.8101 
 388   0.0000       6.026453       163.9881 
 389   0.0000       6.037901       164.2996 
 390   0.0000       6.136339       166.9783 
 391   0.0000       6.147762       167.2891 
 392   0.0000       6.149349       167.3323 
 393   0.0000       6.154609       167.4754 
 394   0.0000       6.159305       167.6032 
 395   0.0000       6.462762       175.8607 
 396   0.0000       6.469751       176.0509 
 397   0.0000       6.499392       176.8574 
 398   0.0000       6.511159       177.1776 
 399   0.0000       6.527984       177.6355 
 400   0.0000       6.534735       177.8192 
 401   0.0000       6.557682       178.4436 
 402   0.0000       6.611731       179.9144 
 403   0.0000       6.623613       180.2377 
 404   0.0000       6.670659       181.5179 
 405   0.0000       6.768687       184.1853 
 406   0.0000       6.787705       184.7028 
 407   0.0000       6.806011       185.2010 
 408   0.0000       6.812901       185.3885 
 409   0.0000       6.814815       185.4405 
 410   0.0000       6.840175       186.1306 
 411   0.0000       6.855917       186.5590 
 412   0.0000       6.858583       186.6315 
 413   0.0000       6.865600       186.8225 
 414   0.0000       6.881364       187.2514 
 415   0.0000       6.897114       187.6800 
 416   0.0000       6.909797       188.0251 
 417   0.0000       6.929027       188.5484 
 418   0.0000       6.934371       188.6938 
 419   0.0000       6.952485       189.1867 
 420   0.0000       6.964410       189.5112 
 421   0.0000       6.971085       189.6929 
 422   0.0000       6.991065       190.2365 
 423   0.0000       7.005171       190.6204 
 424   0.0000       7.008960       190.7235 
 425   0.0000       7.021765       191.0719 
 426   0.0000       7.037313       191.4950 
 427   0.0000       7.047439       191.7706 
 428   0.0000       7.076872       192.5715 
 429   0.0000       7.090813       192.9508 
 430   0.0000       7.101238       193.2345 
 431   0.0000       7.134486       194.1392 
 432   0.0000       7.152302       194.6240 
 433   0.0000       7.210598       196.2103 
 434   0.0000       7.217559       196.3998 
 435   0.0000       7.354917       200.1375 
 436   0.0000       7.358143       200.2252 
 437   0.0000       7.414951       201.7711 
 438   0.0000       7.429738       202.1735 
 439   0.0000       7.441354       202.4895 
 440   0.0000       7.595832       206.6931 
 441   0.0000       7.602587       206.8769 
 442   0.0000       7.605346       206.9520 
 443   0.0000       7.612013       207.1334 
 444   0.0000       7.613290       207.1681 
 445   0.0000       7.625681       207.5053 
 446   0.0000       7.644072       208.0058 
 447   0.0000       7.689312       209.2368 
 448   0.0000       7.704136       209.6402 
 449   0.0000       7.791822       212.0262 
 450   0.0000       8.503084       231.3807 
 451   0.0000       8.520524       231.8552 
 452   0.0000       8.533651       232.2124 
 453   0.0000       8.549084       232.6324 
 454   0.0000       8.593590       233.8435 
 455   0.0000      15.445113       420.2829 
 456   0.0000      16.067187       437.2104 
 457   0.0000      16.130462       438.9322 
 458   0.0000      17.037256       463.6073 
 459   0.0000      17.062457       464.2931 

                    ********************************
                    * MULLIKEN POPULATION ANALYSIS *
                    ********************************

-----------------------
MULLIKEN ATOMIC CHARGES
-----------------------
   0 O :   -0.388134
   1 O :   -0.382320
   2 O :   -0.375139
   3 O :   -0.400052
   4 O :   -0.379272
   5 H :    0.269239
   6 H :    0.273406
   7 H :    0.256452
   8 H :    0.276948
   9 H :    0.270427
  10 H :    0.114825
  11 H :    0.115648
  12 H :    0.118703
  13 H :    0.114907
  14 H :    0.114363
Sum of atomic charges:   -0.0000000

--------------------------------
MULLIKEN REDUCED ORBITAL CHARGES
--------------------------------
  0 O s       :     3.958379  s :     3.958379
      pz      :     1.404951  p :     4.420436
      px      :     1.554764
      py      :     1.460721
      dz2     :     0.001460  d :     0.009495
      dxz     :     0.000482
      dyz     :     0.001447
      dx2y2   :     0.002857
      dxy     :     0.003248
      f0      :    -0.000032  f :    -0.000175
      f+1     :    -0.000082
      f-1     :     0.000062
      f+2     :    -0.000047
      f-2     :     0.000100
      f+3     :    -0.000208
      f-3     :     0.000032
  1 O s       :     3.955776  s :     3.955776
      pz      :     1.388102  p :     4.416666
      px      :     1.380584
      py      :     1.647979
      dz2     :     0.001706  d :     0.010060
      dxz     :     0.001161
      dyz     :     0.000942
      dx2y2   :     0.006191
      dxy     :     0.000060
      f0      :    -0.000043  f :    -0.000181
      f+1     :    -0.000062
      f-1     :     0.000034
      f+2     :     0.000028
      f-2     :     0.000022
      f+3     :    -0.000095
      f-3     :    -0.000064
  2 O s       :     3.962973  s :     3.962973
      pz      :     1.435317  p :     4.404552
      px      :     1.653206
      py      :     1.316030
      dz2     :     0.001536  d :     0.007839
      dxz     :     0.000876
      dyz     :     0.000985
      dx2y2   :     0.003531
      dxy     :     0.000910
      f0      :     0.000011  f :    -0.000225
      f+1     :     0.000076
      f-1     :    -0.000171
      f+2     :     0.000066
      f-2     :    -0.000001
      f+3     :    -0.000008
      f-3     :    -0.000198
  3 O s       :     3.964205  s :     3.964205
      pz      :     1.594344  p :     4.426466
      px      :     1.294482
      py      :     1.537639
      dz2     :     0.002969  d :     0.009475
      dxz     :     0.000122
      dyz     :    -0.000301
      dx2y2   :     0.001332
      dxy     :     0.005355
      f0      :     0.000118  f :    -0.000094
      f+1     :    -0.000014
      f-1     :    -0.000000
      f+2     :     0.000058
      f-2     :     0.000027
      f+3     :     0.000002
      f-3     :    -0.000286
  4 O s       :     3.955676  s :     3.955676
      pz      :     1.423291  p :     4.414117
      px      :     1.546810
      py      :     1.444016
      dz2     :     0.001901  d :     0.009678
      dxz     :     0.001795
      dyz     :     0.000262
      dx2y2   :    -0.000472
      dxy     :     0.006192
      f0      :    -0.000004  f :    -0.000199
      f+1     :     0.000098
      f-1     :    -0.000156
      f+2     :     0.000012
      f-2     :     0.000055
      f+3     :    -0.000172
      f-3     :    -0.000033
  5 H s       :     0.625529  s :     0.625529
      pz      :     0.040823  p :     0.055016
      px      :     0.022470
      py      :    -0.008278
      dz2     :     0.002653  d :     0.050216
      dxz     :     0.005831
      dyz     :     0.014168
      dx2y2   :     0.017202
      dxy     :     0.010363
  6 H s       :     0.624700  s :     0.624700
      pz      :     0.039904  p :     0.052170
      px      :    -0.033530
      py      :     0.045796
      dz2     :     0.001856  d :     0.049724
      dxz     :     0.017589
      dyz     :     0.001445
      dx2y2   :     0.002891
      dxy     :     0.025943
  7 H s       :     0.642241  s :     0.642241
      pz      :     0.039640  p :     0.054441
      px      :     0.056872
      py      :    -0.042072
      dz2     :     0.001995  d :     0.046867
      dxz     :     0.000155
      dyz     :     0.015622
      dx2y2   :     0.004210
      dxy     :     0.024885
  8 H s       :     0.619552  s :     0.619552
      pz      :     0.047236  p :     0.053560
      px      :    -0.031330
      py      :     0.037655
      dz2     :     0.001211  d :     0.049939
      dxz     :     0.021555
      dyz     :     0.002718
      dx2y2   :     0.015847
      dxy     :     0.008609
  9 H s       :     0.624331  s :     0.624331
      pz      :     0.041815  p :     0.056901
      px      :     0.022825
      py      :    -0.007739
      dz2     :     0.002275  d :     0.048341
      dxz     :     0.008024
      dyz     :     0.010915
      dx2y2   :     0.027226
      dxy     :    -0.000099
 10 H s       :     0.754982  s :     0.754982
      pz      :     0.021677  p :     0.112309
      px      :     0.049659
      py      :     0.040974
      dz2     :     0.006598  d :     0.017884
      dxz     :     0.001090
      dyz     :     0.004874
      dx2y2   :     0.001728
      dxy     :     0.003594
 11 H s       :     0.752711  s :     0.752711
      pz      :     0.019100  p :     0.113495
      px      :     0.039222
      py      :     0.055172
      dz2     :     0.006109  d :     0.018145
      dxz     :     0.004330
      dyz     :     0.002591
      dx2y2   :     0.002771
      dxy     :     0.002343
 12 H s       :     0.752012  s :     0.752012
      pz      :     0.022506  p :     0.110973
      px      :     0.054566
      py      :     0.033902
      dz2     :     0.007531  d :     0.018312
      dxz     :     0.002711
      dyz     :     0.001843
      dx2y2   :     0.004396
      dxy     :     0.001831
 13 H s       :     0.756653  s :     0.756653
      pz      :     0.036931  p :     0.110652
      px      :     0.035346
      py      :     0.038375
      dz2     :     0.008021  d :     0.017788
      dxz     :     0.000918
      dyz     :     0.001264
      dx2y2   :     0.005551
      dxy     :     0.002034
 14 H s       :     0.752009  s :     0.752009
      pz      :     0.022929  p :     0.115262
      px      :     0.045492
      py      :     0.046842
      dz2     :     0.007111  d :     0.018366
      dxz     :     0.004300
      dyz     :     0.001033
      dx2y2   :     0.002353
      dxy     :     0.003570


                     *******************************
                     * LOEWDIN POPULATION ANALYSIS *
                     *******************************

----------------------
LOEWDIN ATOMIC CHARGES
----------------------
   0 O :    1.129090
   1 O :    1.129255
   2 O :    1.130419
   3 O :    1.127696
   4 O :    1.128213
   5 H :   -0.672083
   6 H :   -0.671356
   7 H :   -0.666190
   8 H :   -0.672537
   9 H :   -0.672352
  10 H :   -0.457329
  11 H :   -0.456273
  12 H :   -0.458560
  13 H :   -0.461155
  14 H :   -0.456836

-------------------------------
LOEWDIN REDUCED ORBITAL CHARGES
-------------------------------
  0 O s       :     2.951753  s :     2.951753
      pz      :     1.256296  p :     3.795128
      px      :     1.278795
      py      :     1.260037
      dz2     :     0.024604  d :     0.104677
      dxz     :     0.023955
      dyz     :     0.005731
      dx2y2   :     0.013787
      dxy     :     0.036601
      f0      :     0.000985  f :     0.019353
      f+1     :     0.005495
      f-1     :     0.003222
      f+2     :     0.001762
      f-2     :     0.000940
      f+3     :     0.005950
      f-3     :     0.000997
  1 O s       :     2.951732  s :     2.951732
      pz      :     1.253480  p :     3.795094
      px      :     1.235604
      py      :     1.306010
      dz2     :     0.026926  d :     0.104529
      dxz     :     0.005154
      dyz     :     0.022761
      dx2y2   :     0.029368
      dxy     :     0.020320
      f0      :     0.001354  f :     0.019390
      f+1     :     0.002821
      f-1     :     0.005950
      f+2     :     0.001771
      f-2     :     0.000612
      f+3     :     0.004817
      f-3     :     0.002065
  2 O s       :     2.951532  s :     2.951532
      pz      :     1.275706  p :     3.794458
      px      :     1.306168
      py      :     1.212584
      dz2     :     0.022480  d :     0.104224
      dxz     :     0.018731
      dyz     :     0.010747
      dx2y2   :     0.039307
      dxy     :     0.012960
      f0      :     0.000481  f :     0.019369
      f+1     :     0.005101
      f-1     :     0.003455
      f+2     :     0.000983
      f-2     :     0.002297
      f+3     :     0.002115
      f-3     :     0.004937
  3 O s       :     2.953369  s :     2.953369
      pz      :     1.321638  p :     3.796219
      px      :     1.196279
      py      :     1.278301
      dz2     :     0.014804  d :     0.103653
      dxz     :     0.013691
      dyz     :     0.014650
      dx2y2   :     0.030582
      dxy     :     0.029926
      f0      :     0.000797  f :     0.019062
      f+1     :     0.002405
      f-1     :     0.002803
      f+2     :     0.000567
      f-2     :     0.004514
      f+3     :     0.001772
      f-3     :     0.006203
  4 O s       :     2.952428  s :     2.952428
      pz      :     1.264000  p :     3.795594
      px      :     1.282251
      py      :     1.249343
      dz2     :     0.023160  d :     0.104359
      dxz     :     0.009713
      dyz     :     0.020449
      dx2y2   :     0.013415
      dxy     :     0.037622
      f0      :     0.000703  f :     0.019405
      f+1     :     0.004342
      f-1     :     0.004398
      f+2     :     0.000698
      f-2     :     0.002213
      f+3     :     0.003730
      f-3     :     0.003321
  5 H s       :     0.546375  s :     0.546375
      pz      :     0.139845  p :     0.624821
      px      :     0.194892
      py      :     0.290084
      dz2     :     0.055081  d :     0.500887
      dxz     :     0.049030
      dyz     :     0.105648
      dx2y2   :     0.141444
      dxy     :     0.149683
  6 H s       :     0.546523  s :     0.546523
      pz      :     0.137951  p :     0.624240
      px      :     0.335304
      py      :     0.150985
      dz2     :     0.052196  d :     0.500593
      dxz     :     0.143034
      dyz     :     0.012487
      dx2y2   :     0.146659
      dxy     :     0.146218
  7 H s       :     0.548525  s :     0.548525
      pz      :     0.140947  p :     0.620143
      px      :     0.141207
      py      :     0.337989
      dz2     :     0.048660  d :     0.497522
      dxz     :     0.001515
      dyz     :     0.156279
      dx2y2   :     0.150212
      dxy     :     0.140856
  8 H s       :     0.546707  s :     0.546707
      pz      :     0.146764  p :     0.625263
      px      :     0.311248
      py      :     0.167251
      dz2     :     0.050311  d :     0.500568
      dxz     :     0.135138
      dyz     :     0.020225
      dx2y2   :     0.145878
      dxy     :     0.149016
  9 H s       :     0.546448  s :     0.546448
      pz      :     0.140046  p :     0.624763
      px      :     0.227482
      py      :     0.257235
      dz2     :     0.054403  d :     0.501141
      dxz     :     0.059513
      dyz     :     0.094676
      dx2y2   :     0.143651
      dxy     :     0.148899
 10 H s       :     0.583545  s :     0.583545
      pz      :     0.224256  p :     0.533576
      px      :     0.170284
      py      :     0.139036
      dz2     :     0.106655  d :     0.340207
      dxz     :     0.088876
      dyz     :     0.078911
      dx2y2   :     0.027621
      dxy     :     0.038144
 11 H s       :     0.582716  s :     0.582716
      pz      :     0.227466  p :     0.533165
      px      :     0.131905
      py      :     0.173794
      dz2     :     0.109620  d :     0.340393
      dxz     :     0.081923
      dyz     :     0.089434
      dx2y2   :     0.027485
      dxy     :     0.031930
 12 H s       :     0.583947  s :     0.583947
      pz      :     0.222808  p :     0.534484
      px      :     0.174797
      py      :     0.136880
      dz2     :     0.105172  d :     0.340128
      dxz     :     0.081445
      dyz     :     0.074576
      dx2y2   :     0.045246
      dxy     :     0.033690
 13 H s       :     0.585319  s :     0.585319
      pz      :     0.203994  p :     0.535543
      px      :     0.152539
      py      :     0.179011
      dz2     :     0.082044  d :     0.340293
      dxz     :     0.062563
      dyz     :     0.068248
      dx2y2   :     0.074357
      dxy     :     0.053081
 14 H s       :     0.582521  s :     0.582521
      pz      :     0.222728  p :     0.533625
      px      :     0.152407
      py      :     0.158491
      dz2     :     0.104962  d :     0.340690
      dxz     :     0.078154
      dyz     :     0.085663
      dx2y2   :     0.036043
      dxy     :     0.035868


                      *****************************
                      * MAYER POPULATION ANALYSIS *
                      *****************************

  NA   - Mulliken gross atomic population
  ZA   - Total nuclear charge
  QA   - Mulliken gross atomic charge
  VA   - Mayer's total valence
  BVA  - Mayer's bonded valence
  FA   - Mayer's free valence

  ATOM       NA         ZA         QA         VA         BVA        FA
  0 O      8.3881     8.0000    -0.3881     1.9019     1.9019    -0.0000
  1 O      8.3823     8.0000    -0.3823     1.8956     1.8956     0.0000
  2 O      8.3751     8.0000    -0.3751     1.8944     1.8944     0.0000
  3 O      8.4001     8.0000    -0.4001     1.8964     1.8964    -0.0000
  4 O      8.3793     8.0000    -0.3793     1.9016     1.9016    -0.0000
  5 H      0.7308     1.0000     0.2692     0.9703     0.9703    -0.0000
  6 H      0.7266     1.0000     0.2734     0.9641     0.9641     0.0000
  7 H      0.7435     1.0000     0.2565     0.9841     0.9841     0.0000
  8 H      0.7231     1.0000     0.2769     0.9606     0.9606     0.0000
  9 H      0.7296     1.0000     0.2704     0.9677     0.9677     0.0000
 10 H      0.8852     1.0000     0.1148     1.1152     1.1152    -0.0000
 11 H      0.8844     1.0000     0.1156     1.1168     1.1168    -0.0000
 12 H      0.8813     1.0000     0.1187     1.1029     1.1029    -0.0000
 13 H      0.8851     1.0000     0.1149     1.1102     1.1102    -0.0000
 14 H      0.8856     1.0000     0.1144     1.1210     1.1210     0.0000

  Mayer bond orders larger than 0.100000
B(  0-O ,  5-H ) :   0.8457 B(  0-O , 10-H ) :   1.0725 B(  1-O ,  6-H ) :   0.8449 
B(  1-O , 11-H ) :   1.0699 B(  2-O ,  7-H ) :   0.8569 B(  2-O , 12-H ) :   1.0664 
B(  3-O ,  8-H ) :   0.8390 B(  3-O , 13-H ) :   1.0772 B(  4-O ,  9-H ) :   0.8464 
B(  4-O , 14-H ) :   1.0728 

-------
TIMINGS
-------

Total SCF time: 0 days 0 hours 0 min 6 sec 

Total time                  ....       6.715 sec
Sum of individual times     ....       6.334 sec  ( 94.3%)

Fock matrix formation       ....       5.137 sec  ( 76.5%)
  Split-RI-J                ....       2.016 sec  ( 39.2% of F)
  XC integration            ....       2.926 sec  ( 57.0% of F)
    Basis function eval.    ....       0.284 sec  (  9.7% of XC)
    Density eval.           ....       0.692 sec  ( 23.6% of XC)
    XC-Functional eval.     ....       0.068 sec  (  2.3% of XC)
    XC-Potential eval.      ....       1.365 sec  ( 46.6% of XC)
Diagonalization             ....       0.245 sec  (  3.6%)
Density matrix formation    ....       0.037 sec  (  0.6%)
Population analysis         ....       0.035 sec  (  0.5%)
Initial guess               ....       0.232 sec  (  3.5%)
Orbital Transformation      ....       0.000 sec  (  0.0%)
Orbital Orthonormalization  ....       0.000 sec  (  0.0%)
DIIS solution               ....       0.107 sec  (  1.6%)
SOSCF solution              ....       0.252 sec  (  3.8%)
Grid generation             ....       0.288 sec  (  4.3%)


-------------------------------------------------------------------------------
                          DFT DISPERSION CORRECTION                            
                                                                               
                              DFTD3 V3.1  Rev 1                                
                          USING Becke-Johnson damping                          
-------------------------------------------------------------------------------
The TPSS functional is recognized
Active option DFTDOPT                   ...         4   

molecular C6(AA) [au] = 1112.689386 


            DFT-D V3
 parameters
 s6 scaling factor         :     1.0000 
 a1 scaling factor         :     0.4535 
 s8 scaling factor         :     1.9435 
 a2 scaling factor         :     4.4752 
 ad hoc parameters k1-k3   :    16.0000     1.3333    -4.0000 

 Edisp/kcal,au: -4.639215707469  -0.007393060032 
 E6   /kcal   :  -2.665568422 
 E8   /kcal   :  -1.973647285 
 % E8         :  42.542692763 

-------------------------   ----------------
Dispersion correction           -0.007393060
-------------------------   ----------------


-------------------------   --------------------
FINAL SINGLE POINT ENERGY      -382.397146742765
-------------------------   --------------------



           ************************************************************
           *        Program running with 24 parallel MPI-processes    *
           *              working on a common directory               *
           ************************************************************
------------------------------------------------------------------------------
                         ORCA SCF GRADIENT CALCULATION
------------------------------------------------------------------------------

Gradient of the Kohn-Sham DFT energy:
Kohn-Sham wavefunction type      ... RKS
Hartree-Fock exchange scaling    ...    0.000
Number of operators              ...    1
Number of atoms                  ...   15
Basis set dimensions             ...  460
Integral neglect threshold       ... 2.5e-11
Integral primitive cutoff        ... 2.5e-12

Nuclear repulsion gradient       ... done
One Electron Gradient            ... done
Pre-screening matrix             ... done
RI-J gradient                    ... done
Exchange-correlation gradient    ... done
Dispersion correction            ... done

------------------
CARTESIAN GRADIENT
------------------

   1   O   :   -0.001642636   -0.011917636    0.005899970
   2   O   :   -0.011544394   -0.001895723   -0.006675184
   3   O   :   -0.005924480    0.009416797    0.007205016
   4   O   :    0.006879764    0.010041456    0.005540987
   5   O   :    0.011025431   -0.005027698   -0.006011889
   6   H   :    0.007413263    0.011028385    0.002503117
   7   H   :    0.012914483   -0.003436402   -0.001897254
   8   H   :    0.000789144   -0.013274115    0.000506880
   9   H   :   -0.012785975   -0.004493555    0.000756941
  10   H   :   -0.008206485    0.010469383   -0.002240515
  11   H   :   -0.004657461    0.000180707   -0.007358034
  12   H   :   -0.001595910    0.004151935    0.007459807
  13   H   :    0.003817683    0.003563134   -0.006972864
  14   H   :    0.005208396   -0.004263668   -0.005543378
  15   H   :   -0.001783330   -0.004546095    0.007199135

Difference to translation invariance:
           :   -0.0000925071   -0.0000030940    0.0003727337

Norm of the cartesian gradient     ...    0.0467518848
RMS gradient                       ...    0.0069693595
MAX gradient                       ...    0.0132741153

-------
TIMINGS
-------

Total SCF gradient time            ...        2.129 sec

One electron gradient       ....       0.040 sec  (  1.9%)
Prescreening matrices       ....       0.057 sec  (  2.7%)
RI-J Coulomb gradient       ....       0.492 sec  ( 23.1%)
XC gradient                 ....       1.155 sec  ( 54.2%)
------------------------------------------------------------------------------
                         ORCA GEOMETRY RELAXATION STEP
------------------------------------------------------------------------------

Reading the OPT-File                    .... done
Getting information on internals        .... done
Copying old internal coords+grads       .... done
Making the new internal coordinates     .... (new redundants).... done
Validating the new internal coordinates .... (new redundants).... done
Calculating the B-matrix                .... done
Calculating the G,G- and P matrices     .... done
Transforming gradient to internals      .... done
Projecting the internal gradient        .... done
Number of atoms                         ....  15
Number of internal coordinates          ....  59
Current Energy                          ....  -382.397146743 Eh
Current gradient norm                   ....     0.046751885 Eh/bohr
Maximum allowed component of the step   ....  0.300
Current trust radius                    ....  0.300
Evaluating the initial hessian          ....  (Almloef) done
Projecting the Hessian                  .... done
Forming the augmented Hessian           .... done
Diagonalizing the augmented Hessian     .... done
Last element of RFO vector              ....  0.986397826
Lowest eigenvalues of augmented Hessian:
 -0.002615747  0.001616117  0.001754583  0.023680068  0.027184471
Length of the computed step             ....  0.166642267
The final length of the internal step   ....  0.166642267
Converting the step to cartesian space:
 Initial RMS(Int)=    0.0216949753
Transforming coordinates:
 Iter   0:  RMS(Cart)=    0.0251639096 RMS(Int)=    0.0216060430
 Iter   1:  RMS(Cart)=    0.0003343748 RMS(Int)=    0.0002564907
 Iter   2:  RMS(Cart)=    0.0000372143 RMS(Int)=    0.0000233523
 Iter   3:  RMS(Cart)=    0.0000181495 RMS(Int)=    0.0000107506
 Iter   4:  RMS(Cart)=    0.0000087181 RMS(Int)=    0.0000051554
 Iter   5:  RMS(Cart)=    0.0000042118 RMS(Int)=    0.0000024840
 Iter   6:  RMS(Cart)=    0.0000020394 RMS(Int)=    0.0000012004
 Iter   7:  RMS(Cart)=    0.0000009892 RMS(Int)=    0.0000005815
 Iter   8:  RMS(Cart)=    0.0000004806 RMS(Int)=    0.0000002823
 Iter   9:  RMS(Cart)=    0.0000002337 RMS(Int)=    0.0000001372
 Iter  10:  RMS(Cart)=    0.0000001138 RMS(Int)=    0.0000000668
 Iter  11:  RMS(Cart)=    0.0000000555 RMS(Int)=    0.0000000326
done
Storing new coordinates                 .... done

                                .--------------------.
          ----------------------|Geometry convergence|-------------------------
          Item                value                   Tolerance       Converged
          ---------------------------------------------------------------------
          RMS gradient        0.0044602919            0.0001000000      NO
          MAX gradient        0.0126261414            0.0003000000      NO
          RMS step            0.0216949753            0.0020000000      NO
          MAX step            0.0445438242            0.0040000000      NO
          ........................................................
          Max(Bonds)      0.0205      Max(Angles)    0.32
          Max(Dihed)        2.55      Max(Improp)    0.00
          ---------------------------------------------------------------------

The optimization has not yet converged - more geometry cycles are needed


    ---------------------------------------------------------------------------
                         Redundant Internal Coordinates
                            (Angstroem and degrees)

        Definition                    Value    dE/dq     Step     New-Value
    ----------------------------------------------------------------------------
     1. B(H   5,O   0)                0.9779 -0.012626  0.0137    0.9916   
     2. B(H   5,O   1)                1.7525  0.000988 -0.0164    1.7361   
     3. B(H   6,O   2)                1.7543  0.001085 -0.0188    1.7354   
     4. B(H   6,O   1)                0.9777 -0.012518  0.0135    0.9912   
     5. B(H   7,O   2)                0.9770 -0.012314  0.0132    0.9902   
     6. B(H   7,O   3)                1.7697  0.001094 -0.0205    1.7492   
     7. B(H   8,O   4)                1.7548  0.001095 -0.0191    1.7357   
     8. B(H   8,O   3)                0.9779 -0.012558  0.0136    0.9915   
     9. B(H   9,O   0)                1.7535  0.001019 -0.0170    1.7365   
    10. B(H   9,O   4)                0.9779 -0.012548  0.0136    0.9914   
    11. B(H  10,O   0)                0.9581 -0.008649  0.0087    0.9668   
    12. B(H  11,O   1)                0.9583 -0.008651  0.0087    0.9670   
    13. B(H  12,O   2)                0.9580 -0.008755  0.0088    0.9668   
    14. B(H  13,O   3)                0.9579 -0.008754  0.0088    0.9667   
    15. B(H  14,O   4)                0.9584 -0.008687  0.0087    0.9671   
    16. A(H   9,O   0,H  10)          119.31  0.000584   -0.31    119.00   
    17. A(H   5,O   0,H   9)          111.40  0.000464   -0.08    111.31   
    18. A(H   5,O   0,H  10)          105.42 -0.000571    0.04    105.45   
    19. A(H   5,O   1,H   6)          111.61  0.000423   -0.08    111.53   
    20. A(H   5,O   1,H  11)          117.92  0.000418   -0.26    117.66   
    21. A(H   6,O   1,H  11)          105.31 -0.000394    0.03    105.34   
    22. A(H   7,O   2,H  12)          105.55 -0.000596    0.11    105.66   
    23. A(H   6,O   2,H  12)          117.41  0.000492   -0.13    117.28   
    24. A(H   6,O   2,H   7)          112.50  0.000529   -0.07    112.42   
    25. A(H   7,O   3,H  13)          123.20  0.000592   -0.30    122.89   
    26. A(H   8,O   3,H  13)          105.33 -0.000679    0.08    105.41   
    27. A(H   7,O   3,H   8)          112.21  0.000355   -0.11    112.10   
    28. A(H   9,O   4,H  14)          105.11 -0.000614    0.06    105.16   
    29. A(H   8,O   4,H  14)          116.90  0.000604   -0.32    116.58   
    30. A(H   8,O   4,H   9)          111.57  0.000444   -0.09    111.48   
    31. L(O   0,H   5,O   1,H   9, 2) 181.67 -0.000150    0.05    181.73   
    32. L(O   0,H   5,O   1,H   9, 1) 175.60 -0.000539    0.26    175.86   
    33. L(O   1,H   6,O   2,H   5, 2) 178.78  0.000279   -0.07    178.71   
    34. L(O   1,H   6,O   2,H   5, 1) 176.84 -0.000413    0.18    177.03   
    35. A(O   2,H   7,O   3)          173.00 -0.000609    0.23    173.24   
    36. L(O   3,H   8,O   4,H   7, 2) 180.58  0.000005    0.01    180.59   
    37. L(O   3,H   8,O   4,H   7, 1) 176.70 -0.000460    0.19    176.89   
    38. L(O   0,H   9,O   4,H   8, 2) 183.54  0.000023    0.02    183.57   
    39. L(O   0,H   9,O   4,H   8, 1) 176.18 -0.000385    0.20    176.38   
    40. D(H  11,O   1,O   0,H   9)    106.43 -0.000457    2.36    108.79   
    41. D(H   6,O   1,O   0,H   9)    -14.93 -0.000530    2.49    -12.43   
    42. D(H   6,O   1,O   0,H  10)    114.81  0.000016    2.11    116.92   
[...]
     43      -0.047555   0.026164  -0.000639   0.002962   0.068050   0.038312
     44      -0.022602   0.085257  -0.047334  -0.048318   0.077440  -0.002848
                 30         31         32         33         34         35    
      0      -0.009799   0.004020   0.011402  -0.001161  -0.016586   0.015561
      1       0.029972  -0.016455  -0.025524  -0.002421   0.026184   0.025995
      2      -0.021815   0.014138   0.016506   0.002844  -0.018300  -0.003924
      3      -0.029327  -0.020695   0.010274  -0.017095   0.017385   0.027097
      4      -0.014710  -0.014617   0.004440  -0.012424   0.016982  -0.006854
      5      -0.025780  -0.015687   0.010290  -0.015366   0.015435   0.000180
      6       0.010431   0.015621   0.015852  -0.021268   0.010260   0.001146
      7      -0.015838  -0.021985  -0.014582   0.022905  -0.006480  -0.024086
      8      -0.018755  -0.022576  -0.016001   0.021084  -0.007362   0.003199
      9       0.000907   0.004048   0.000132  -0.003970   0.001904  -0.024081
     10      -0.013578   0.012953  -0.037333  -0.030296  -0.013750  -0.010832
     11      -0.011320   0.005295  -0.027340  -0.017297  -0.010592  -0.008825
     12       0.020976  -0.033087   0.010327  -0.019045  -0.026467  -0.019834
     13       0.001171  -0.003709  -0.002459  -0.007292  -0.008002   0.022615
     14      -0.015427   0.024145  -0.010573   0.011493   0.018584   0.007611
     15       0.295898  -0.161367  -0.281314  -0.011558   0.359687  -0.237980
     16      -0.145633   0.063034   0.140354  -0.006468  -0.174457  -0.413056
     17       0.279371  -0.182061  -0.237278  -0.038042   0.269679   0.035743
     18       0.075760   0.066664  -0.018024   0.049446  -0.068590  -0.427148
     19       0.278130   0.234826  -0.102593   0.218751  -0.276394   0.094327
     20       0.368775   0.258443  -0.140491   0.247090  -0.259676   0.018305
     21      -0.160005  -0.209624  -0.206488   0.256573  -0.132214  -0.035585
     22       0.024604   0.041851   0.014217  -0.052299   0.007888   0.373178
     23       0.256104   0.350851   0.271194  -0.395940   0.147957  -0.070034
     24      -0.094838   0.081825  -0.274954  -0.233198  -0.118305   0.378755
     25       0.150482  -0.124241   0.410630   0.313113   0.164506   0.174615
     26       0.095182  -0.079839   0.273342   0.233061   0.110451   0.120892
     27      -0.146968   0.250017  -0.039440   0.183501   0.236600   0.318620
     28      -0.179064   0.304666  -0.086083   0.205295   0.291825  -0.354480
     29       0.176700  -0.286063   0.126936  -0.149850  -0.238757  -0.092675
     30      -0.091735   0.051259   0.080873   0.004824  -0.096770   0.032884
     31      -0.318324   0.182433   0.281955   0.027723  -0.310443   0.003307
     32       0.079016  -0.045837  -0.067744  -0.004930   0.081791   0.016503
     33       0.360214   0.273095  -0.129732   0.242396  -0.268594   0.009840
     34      -0.010073  -0.003660   0.003510  -0.005060   0.008038  -0.025586
     35       0.060440   0.040919  -0.022357   0.038574  -0.042187  -0.020201
     36      -0.039801  -0.067634  -0.065673   0.094164  -0.040300  -0.015044
     37       0.216621   0.294546   0.252054  -0.337279   0.138170  -0.012775
     38       0.022733   0.025745   0.016405  -0.021512   0.006170   0.023712
     39       0.096862  -0.104572   0.279366   0.243104   0.103901  -0.027448
     40       0.070545  -0.104415   0.221825   0.220268   0.077996   0.017617
     41       0.065374  -0.043085   0.172007   0.123519   0.067963   0.008629
     42      -0.187253   0.297983  -0.106264   0.163373   0.238936   0.004870
     43       0.118798  -0.193626   0.061796  -0.115362  -0.164163   0.034313
     44       0.073938  -0.123434   0.038387  -0.075735  -0.107923  -0.012949
                 36         37         38         39         40         41    
      0       0.008932  -0.016334  -0.016887  -0.004521   0.003896   0.048665
      1       0.016280  -0.030459  -0.030877  -0.008929  -0.000476  -0.000295
      2      -0.001173   0.003987   0.003379   0.001125   0.002893   0.035222
      3       0.037949   0.009961   0.022873   0.029415  -0.000319  -0.002785
      4      -0.007670  -0.002050  -0.004862  -0.005731   0.000659   0.008430
      5      -0.000201  -0.000824  -0.000583  -0.000293   0.000768   0.009327
      6       0.000657   0.003800   0.000431  -0.004775  -0.001583  -0.002000
      7      -0.007684  -0.035554  -0.001500   0.042471  -0.000980  -0.001243
      8       0.000174   0.004745  -0.000318  -0.005648   0.003205   0.004051
      9       0.027519  -0.020853   0.021582  -0.023588   0.001505   0.000898
     10       0.013894  -0.010617   0.011203  -0.011687  -0.001589  -0.000484
     11       0.009410  -0.007744   0.007727  -0.008460  -0.001286  -0.000411
     12       0.020489   0.017173  -0.023960   0.005309   0.013915  -0.001648
     13      -0.021310  -0.017867   0.024833  -0.005883   0.051062  -0.003874
     14      -0.007309  -0.004785   0.007541  -0.001581  -0.031437   0.002814
     15      -0.156884   0.281278   0.299693   0.082481   0.003847  -0.001856
     16      -0.250289   0.480957   0.494693   0.141498   0.000615  -0.048200
     17       0.020111  -0.037543  -0.036888  -0.009324   0.001753   0.025816
     18      -0.602551  -0.154539  -0.371792  -0.477076   0.002337   0.015901
     19       0.140787   0.044038   0.093977   0.115202  -0.000152  -0.000538
     20       0.031009   0.008651   0.021685   0.029311   0.000398   0.004494
     21      -0.018423  -0.046032  -0.006013   0.051669  -0.001060  -0.001292
     22       0.123270   0.563805   0.022488  -0.689621   0.003858   0.004621
     23      -0.017581  -0.108148  -0.001283   0.132962   0.000655   0.001153
     24      -0.453605   0.346637  -0.367035   0.405332   0.009502  -0.001996
     25      -0.196110   0.162564  -0.161152   0.168425   0.003124  -0.001269
     26      -0.138019   0.106274  -0.109947   0.121317  -0.000946  -0.000610
     27      -0.321787  -0.257874   0.373868  -0.085493   0.046850   0.004111
     28       0.357448   0.301186  -0.428802   0.102165  -0.016632  -0.007919
     29       0.089949   0.074175  -0.104584   0.025190  -0.030286   0.003075
     30       0.009302  -0.039909  -0.029951  -0.013581  -0.062795  -0.768423
     31       0.011852  -0.004156  -0.015914  -0.000656   0.003845   0.055994
     32       0.004470  -0.021086  -0.017850  -0.007190  -0.047682  -0.585825
     33       0.017043   0.010185   0.017159   0.017389   0.002138   0.025390
     34      -0.033462   0.002418  -0.011052  -0.024289  -0.011017  -0.135880
     35      -0.028433  -0.000189  -0.014283  -0.023984  -0.012619  -0.153370
     36      -0.014000  -0.017926  -0.006830   0.016980   0.025933   0.032931
     37      -0.000556  -0.021039   0.001253   0.029139   0.011579   0.014608
     38       0.016509   0.034035   0.006437  -0.043288  -0.051940  -0.065530
     39       0.033479  -0.028633   0.030638  -0.033296  -0.033150  -0.012340
     40      -0.011230   0.023719  -0.013054   0.001133   0.023056   0.009077
     41      -0.008627   0.011337  -0.010083   0.009137   0.019798   0.007609
     42      -0.009082   0.006059  -0.003837   0.006400  -0.269974   0.022991
     43      -0.038684  -0.021095   0.036651  -0.005528  -0.790852   0.069283
     44       0.016326   0.005839  -0.014866   0.001671   0.531281  -0.046334
                  42         43         44    
      0       0.011536  -0.000434   0.000260
      1       0.000457   0.000234  -0.000118
      2       0.008065  -0.000438   0.000178
      3       0.010349   0.004230   0.000386
      4      -0.037787  -0.013302  -0.000927
      5      -0.041601  -0.014485  -0.000968
      6       0.007870  -0.024212  -0.006521
      7       0.005385  -0.014685  -0.004647
      8      -0.016470   0.049161   0.013367
      9      -0.002828   0.011967  -0.046284
     10       0.001680  -0.006854   0.029393
     11       0.001456  -0.006126   0.024657
     12       0.000148  -0.000818   0.000830
     13       0.001110  -0.002965   0.001236
     14      -0.000573   0.001864  -0.000915
     15      -0.006017  -0.002557   0.000469
     16      -0.019870  -0.002912   0.000706
     17       0.004116  -0.000921   0.000017
     18      -0.044729  -0.025543  -0.003671
     19      -0.008794   0.000356   0.000780
     20      -0.022502  -0.004537   0.000437
     21       0.005887  -0.017050  -0.006215
     22      -0.023827   0.048593   0.022365
     23      -0.003861   0.017340   0.006003
     24       0.003485  -0.015814   0.030391
     25       0.002844  -0.013295   0.040149
     26       0.002153  -0.009847   0.032144
     27       0.002843  -0.002647  -0.002214
     28      -0.002567   0.000139   0.005028
     29      -0.000513   0.001759   0.000274
     30      -0.176310   0.009378  -0.004095
     31       0.013194  -0.000482   0.000416
     32      -0.134502   0.007079  -0.003027
     33      -0.117014  -0.040010  -0.002491
     34       0.605702   0.210473   0.013887
     35       0.683107   0.236997   0.015587
     36      -0.133625   0.399231   0.108693
     37      -0.059572   0.181161   0.049841
     38       0.266439  -0.798111  -0.216715
     39       0.040955  -0.173704   0.701317
     40      -0.029615   0.125375  -0.505946
     41      -0.024923   0.105973  -0.426123
     42      -0.005209   0.015809  -0.007499
     43      -0.014736   0.046945  -0.023019
     44       0.010166  -0.031502   0.014933


-----------
IR SPECTRUM  
-----------

 Mode    freq (cm**-1)   T**2         TX         TY         TZ
-------------------------------------------------------------------
   6:        16.77    3.638555  ( -0.269254  -1.887660   0.052903)
   7:        37.90    0.697439  ( -0.326318   0.737078  -0.218338)
   8:        70.35    7.443650  (  0.252745   0.222846   2.707418)
   9:        78.72    0.981236  (  0.300758  -0.192335  -0.924006)
  10:       202.54    0.152166  (  0.359636   0.150111  -0.017160)
  11:       239.03   68.855922  (  4.627715  -1.181873   6.785525)
  12:       262.46   43.708647  (  0.801705   4.093491  -5.129254)
  13:       265.45    9.640069  ( -0.981492   2.823693   0.838750)
  14:       273.13  161.664242  ( 12.340576  -2.899769   0.982733)
  15:       275.62   67.161057  (  1.722913  -5.026437  -6.239195)
  16:       308.55  206.146670  ( -8.674767 -11.412440   0.807039)
  17:       330.63    5.624447  (  0.034615   0.274316   2.355419)
  18:       336.08   25.745187  ( -2.728695   4.124970   1.133151)
  19:       340.96   33.132324  ( -2.265077   5.000001  -1.732552)
  20:       458.74   28.771181  ( -4.808643   2.109662  -1.094283)
  21:       485.85   25.567874  (  4.051811  -0.847182   2.903960)
  22:       493.28   21.436984  (  3.768980  -1.670782   2.107192)
  23:       502.16   43.676690  ( -2.105836   6.117605   1.347981)
  24:       551.90   64.195617  (  4.428135   5.391975  -3.938762)
  25:       790.17   20.483584  ( -3.616703  -2.395101  -1.290942)
  26:       883.72  194.869156  (  0.538446   1.589348 -13.858326)
  27:       943.78   67.855768  ( -2.090494   7.597808  -2.399774)
  28:       956.32   77.999056  (  7.784173   2.893508   3.005549)
  29:      1052.62    8.146435  ( -0.422896  -2.310158  -1.621963)
  30:      1638.52   72.233768  (  0.858687   1.166573   8.374696)
  31:      1657.01   27.630528  (  3.449956   3.835288  -1.009406)
  32:      1661.33   69.054711  ( -3.782053   7.032477   2.301099)
  33:      1688.92   28.226606  (  5.121978   1.411345   0.007433)
  34:      1700.37    2.451139  (  0.898884  -1.268840   0.182188)
  35:      3002.08   24.018244  (  0.046920  -4.899879  -0.085037)
  36:      3130.15  2751.650008  (-51.802053   8.240139   0.545381)
  37:      3136.54  2674.077148  (  8.348944  51.027814   0.731064)
  38:      3200.07   22.163942  ( -2.360246   0.735740  -4.006478)
  39:      3211.77  101.106886  ( -0.632640  -4.801295   8.812163)
  40:      3756.77   40.513837  (  0.113567  -6.124843   1.728362)
  41:      3758.27   45.473382  ( -4.719306  -2.270568  -4.248065)
  42:      3760.38   44.230195  ( -4.909948   1.777831   4.118485)
  43:      3763.06   45.296977  ( -0.808728   6.062319  -2.809133)
  44:      3768.22   43.308818  (  6.281288  -0.213206  -1.951610)

The first frequency considered to be a vibration is 6
The total number of vibrations considered is 39


--------------------------
THERMOCHEMISTRY AT 298.15K
--------------------------

Temperature         ... 298.15 K
Pressure            ... 1.00 atm
Total Mass          ... 90.07 AMU

Throughout the following assumptions are being made:
  (1) The electronic state is orbitally nondegenerate
  (2) There are no thermally accessible electronically excited states
  (3) Hindered rotations indicated by low frequency modes are not
      treated as such but are treated as vibrations and this may
      cause some error
  (4) All equations used are the standard statistical mechanics
      equations for an ideal gas
  (5) All vibrations are strictly harmonic

freq.      16.77  E(vib)   ...       0.57 
freq.      37.90  E(vib)   ...       0.54 
freq.      70.35  E(vib)   ...       0.50 
freq.      78.72  E(vib)   ...       0.49 
freq.     202.54  E(vib)   ...       0.35 
freq.     239.03  E(vib)   ...       0.32 
freq.     262.46  E(vib)   ...       0.29 
freq.     265.45  E(vib)   ...       0.29 
freq.     273.13  E(vib)   ...       0.29 
freq.     275.62  E(vib)   ...       0.28 
freq.     308.55  E(vib)   ...       0.26 
freq.     330.63  E(vib)   ...       0.24 
freq.     336.08  E(vib)   ...       0.24 
freq.     340.96  E(vib)   ...       0.23 
freq.     458.74  E(vib)   ...       0.16 
freq.     485.85  E(vib)   ...       0.15 
freq.     493.28  E(vib)   ...       0.14 
freq.     502.16  E(vib)   ...       0.14 
freq.     551.90  E(vib)   ...       0.12 
freq.     790.17  E(vib)   ...       0.05 
freq.     883.72  E(vib)   ...       0.04 
freq.     943.78  E(vib)   ...       0.03 
freq.     956.32  E(vib)   ...       0.03 
freq.    1052.62  E(vib)   ...       0.02 
freq.    1638.52  E(vib)   ...       0.00 
freq.    1657.01  E(vib)   ...       0.00 
freq.    1661.33  E(vib)   ...       0.00 
freq.    1688.92  E(vib)   ...       0.00 
freq.    1700.37  E(vib)   ...       0.00 
freq.    3002.08  E(vib)   ...       0.00 
freq.    3130.15  E(vib)   ...       0.00 
freq.    3136.54  E(vib)   ...       0.00 
freq.    3200.07  E(vib)   ...       0.00 
freq.    3211.77  E(vib)   ...       0.00 
freq.    3756.77  E(vib)   ...       0.00 
freq.    3758.27  E(vib)   ...       0.00 
freq.    3760.38  E(vib)   ...       0.00 
freq.    3763.06  E(vib)   ...       0.00 
freq.    3768.22  E(vib)   ...       0.00 

------------
INNER ENERGY
------------

The inner energy is: U= E(el) + E(ZPE) + E(vib) + E(rot) + E(trans)
    E(el)   - is the total energy from the electronic structure calculation
              = E(kin-el) + E(nuc-el) + E(el-el) + E(nuc-nuc)
    E(ZPE)  - the the zero temperature vibrational energy from the frequency calculation
    E(vib)  - the the finite temperature correction to E(ZPE) due to population
              of excited vibrational states
    E(rot)  - is the rotational thermal energy
    E(trans)- is the translational thermal energy

Summary of contributions to the inner energy U:
Electronic energy                ...   -382.39872075 Eh
Zero point energy                ...      0.12072051 Eh      75.75 kcal/mol
Thermal vibrational correction   ...      0.00917881 Eh       5.76 kcal/mol
Thermal rotational correction    ...      0.00141627 Eh       0.89 kcal/mol
Thermal translational correction ...      0.00141627 Eh       0.89 kcal/mol
-----------------------------------------------------------------------
Total thermal energy                   -382.26598889 Eh


Summary of corrections to the electronic energy:
(perhaps to be used in another calculation)
Total thermal correction                  0.01201135 Eh       7.54 kcal/mol
Non-thermal (ZPE) correction              0.12072051 Eh      75.75 kcal/mol
-----------------------------------------------------------------------
Total correction                          0.13273186 Eh      83.29 kcal/mol


--------
ENTHALPY
--------

The enthalpy is H = U + kB*T
                kB is Boltzmann's constant
Total free energy                 ...   -382.26598889 Eh 
Thermal Enthalpy correction       ...      0.00094421 Eh       0.59 kcal/mol
-----------------------------------------------------------------------
Total Enthalpy                    ...   -382.26504468 Eh


Note: Only C1 symmetry has been detected, increase convergence thresholds 
      if your molecule has a higher symmetry. Symmetry factor of 1.0 is   
      used for the rotational entropy correction. 
 

Note: Rotational entropy computed according to Herzberg 
Infrared and Raman Spectra, Chapter V,1, Van Nostrand Reinhold, 1945 
Point Group:  C1, Symmetry Number:   1  
Rotational constants in cm-1:     0.071229     0.070027     0.036467 

Vibrational entropy computed according to the QRRHO of S. Grimme
Chem.Eur.J. 2012 18 9955


-------
ENTROPY
-------

The entropy contributions are T*S = T*(S(el)+S(vib)+S(rot)+S(trans))
     S(el)   - electronic entropy
     S(vib)  - vibrational entropy
     S(rot)  - rotational entropy
     S(trans)- translational entropy
The entropies will be listed as mutliplied by the temperature to get
units of energy

Electronic entropy                ...      0.00000000 Eh      0.00 kcal/mol
Vibrational entropy               ...      0.01647052 Eh     10.34 kcal/mol
Rotational entropy                ...      0.01357649 Eh      8.52 kcal/mol
Translational entropy             ...      0.01872320 Eh     11.75 kcal/mol
-----------------------------------------------------------------------
Final entropy term                ...      0.04877022 Eh     30.60 kcal/mol

In case the symmetry of your molecule has not been determined correctly
or in case you have a reason to use a different symmetry number we print 
out the resulting rotational entropy values for sn=1,12 :
 --------------------------------------------------------
|  sn= 1 | S(rot)=       0.01357649 Eh      8.52 kcal/mol|
|  sn= 2 | S(rot)=       0.01292204 Eh      8.11 kcal/mol|
|  sn= 3 | S(rot)=       0.01253920 Eh      7.87 kcal/mol|
|  sn= 4 | S(rot)=       0.01226758 Eh      7.70 kcal/mol|
|  sn= 5 | S(rot)=       0.01205689 Eh      7.57 kcal/mol|
|  sn= 6 | S(rot)=       0.01188475 Eh      7.46 kcal/mol|
|  sn= 7 | S(rot)=       0.01173920 Eh      7.37 kcal/mol|
|  sn= 8 | S(rot)=       0.01161312 Eh      7.29 kcal/mol|
|  sn= 9 | S(rot)=       0.01150192 Eh      7.22 kcal/mol|
|  sn=10 | S(rot)=       0.01140244 Eh      7.16 kcal/mol|
|  sn=11 | S(rot)=       0.01131245 Eh      7.10 kcal/mol|
|  sn=12 | S(rot)=       0.01123029 Eh      7.05 kcal/mol|
 --------------------------------------------------------


-------------------
GIBBS FREE ENERGY
-------------------

The Gibbs free energy is G = H - T*S

Total enthalpy                    ...   -382.26504468 Eh 
Total entropy correction          ...     -0.04877022 Eh    -30.60 kcal/mol
-----------------------------------------------------------------------
Final Gibbs free energy         ...   -382.31381490 Eh

For completeness - the Gibbs free energy minus the electronic energy
G-E(el)                           ...      0.08490585 Eh     53.28 kcal/mol


Total Time for Numerical Frequencies  :       314.013 sec

Timings for individual modules:

Sum of individual times         ...      153.363 sec (=   2.556 min)
GTO integral calculation        ...       13.939 sec (=   0.232 min)   9.1 %
SCF iterations                  ...       90.095 sec (=   1.502 min)  58.7 %
SCF Gradient evaluation         ...       48.209 sec (=   0.803 min)  31.4 %
Geometry relaxation             ...        1.120 sec (=   0.019 min)   0.7 %
                             ****ORCA TERMINATED NORMALLY****
TOTAL RUN TIME: 0 days 0 hours 7 minutes 44 seconds 954 msec
