
                                 *****************
                                 * O   R   C   A *
                                 *****************

           --- An Ab Initio, DFT and Semiempirical electronic structure package ---

                  #######################################################
                  #                        -***-                        #
                  #          Department of theory and spectroscopy      #
                  #               Directorship: Frank Neese             #
                  #        Max Planck Institute fuer Kohlenforschung    #
                  #                Kaiser Wilhelm Platz 1               #
                  #                 D-45470 Muelheim/Ruhr               #
                  #                      Germany                        #
                  #                                                     #
                  #                  All rights reserved                #
                  #                        -***-                        #
                  #######################################################


                         Program Version 4.2.0 -  RELEASE  -


 With contributions from (in alphabetic order):
   Daniel Aravena         : Magnetic Suceptibility
   Michael Atanasov       : Ab Initio Ligand Field Theory (pilot matlab implementation)
   Alexander A. Auer      : GIAO ZORA, VPT2
   Ute Becker             : Parallelization
   Giovanni Bistoni       : ED, misc. LED, open-shell LED, HFLED
   Martin Brehm           : Molecular dynamics
   Dmytro Bykov           : SCF Hessian
   Vijay G. Chilkuri      : MRCI spin determinant printing, contributions to CSF-ICE
   Dipayan Datta          : RHF DLPNO-CCSD density
   Achintya Kumar Dutta   : EOM-CC, STEOM-CC
   Dmitry Ganyushin       : Spin-Orbit,Spin-Spin,Magnetic field MRCI
   Miquel Garcia          : C-PCM Hessian, Gaussian charge scheme
   Yang Guo               : DLPNO-NEVPT2, CIM, IAO-localization
   Andreas Hansen         : Spin unrestricted coupled pair/coupled cluster methods
   Benjamin Helmich-Paris : CASSCF linear response (MC-RPA)
   Lee Huntington         : MR-EOM, pCC
   Robert Izsak           : Overlap fitted RIJCOSX, COSX-SCS-MP3, EOM
   Christian Kollmar      : KDIIS, OOCD, Brueckner-CCSD(T), CCSD density
   Simone Kossmann        : Meta GGA functionals, TD-DFT gradient, OOMP2, MP2 Hessian
   Martin Krupicka        : AUTO-CI
   Lucas Lang             : DCDCAS
   Dagmar Lenk            : GEPOL surface, SMD
   Dimitrios Liakos       : Extrapolation schemes; Compound Job, initial MDCI parallelization
   Dimitrios Manganas     : Further ROCIS development; embedding schemes
   Dimitrios Pantazis     : SARC Basis sets
   Taras Petrenko         : DFT Hessian,TD-DFT gradient, ASA, ECA, R-Raman, ABS, FL, XAS/XES, NRVS
   Peter Pinski           : DLPNO-MP2, DLPNO-MP2 Gradient
   Christoph Reimann      : Effective Core Potentials
   Marius Retegan         : Local ZFS, SOC
   Christoph Riplinger    : Optimizer, TS searches, QM/MM, DLPNO-CCSD(T), (RO)-DLPNO pert. Triples
   Tobias Risthaus        : Range-separated hybrids, TD-DFT gradient, RPA, STAB
   Michael Roemelt        : Original ROCIS implementation
   Masaaki Saitow         : Open-shell DLPNO-CCSD energy and density
   Barbara Sandhoefer     : DKH picture change effects
   Avijit Sen             : IP-ROCIS
   Kantharuban Sivalingam : CASSCF convergence, NEVPT2, FIC-MRCI
   Bernardo de Souza      : ESD, SOC TD-DFT
   Georgi Stoychev        : AutoAux, RI-MP2 NMR
   Willem Van den Heuvel  : Paramagnetic NMR
   Boris Wezisla          : Elementary symmetry handling
   Frank Wennmohs         : Technical directorship


 We gratefully acknowledge several colleagues who have allowed us to
 interface, adapt or use parts of their codes:
   Stefan Grimme, W. Hujo, H. Kruse,             : VdW corrections, initial TS optimization,
                  C. Bannwarth                     DFT functionals, gCP, sTDA/sTD-DF
   Ed Valeev, F. Pavosevic, A. Kumar             : LibInt (2-el integral package), F12 methods
   Garnet Chan, S. Sharma, J. Yang, R. Olivares  : DMRG
   Ulf Ekstrom                                   : XCFun DFT Library
   Mihaly Kallay                                 : mrcc  (arbitrary order and MRCC methods)
   Andreas Klamt, Michael Diedenhofen            : otool_cosmo (COSMO solvation model)
   Jiri Pittner, Ondrej Demel                    : Mk-CCSD
   Frank Weinhold                                : gennbo (NPA and NBO analysis)
   Christopher J. Cramer and Donald G. Truhlar   : smd solvation model
   Lars Goerigk                                  : TD-DFT with DH, B97 family of functionals
   V. Asgeirsson, H. Jonsson                     : NEB implementation
   FAccTs GmbH                                   : IRC, NEB, NEB-TS, Multilevel, MM, QM/MM, CI optimization
   S Lehtola, MJT Oliveira, MAL Marques          : LibXC Library


 Your calculation uses the libint2 library for the computation of 2-el integrals
 For citations please refer to: http://libint.valeyev.net

 Your ORCA version has been built with support for libXC version: 4.2.3
 For citations please refer to: https://tddft.org/programs/libxc/

 This ORCA versions uses:
   CBLAS   interface :  Fast vector & matrix operations
   LAPACKE interface :  Fast linear algebra routines
   SCALAPACK package :  Parallel linear algebra routines


Your calculation utilizes the atom-pairwise dispersion correction
with the Becke-Johnson damping scheme (D3BJ)
Cite in your paper:
S.Grimme, S.Ehrlich, L.Goerigk, J Comput Chem, (2011), 32, 1456–1465 
S.Grimme, J.Antony, S.Ehrlich and H.Krieg, J.Chem.Phys., 132, (2010), 154104 
   

----- Orbital basis set information -----
Your calculation utilizes the basis: aug-cc-pV(T+d)Z 
             Al - Ar: T.H. Dunning, Jr., K. A. Peterson and A. K. Wilson, J. Chem. Phys.
                      114, 9244 (2001)

----- AuxJ basis set information -----
Your calculation utilizes the auxiliary basis: def2/J
   F. Weigend, Phys. Chem. Chem. Phys. 8, 1057 (2006).

================================================================================
                                        WARNINGS
                       Please study these warnings very carefully!
================================================================================


WARNING: Geometry Optimization
  ===> : Switching off AutoStart
         For restart on a previous wavefunction, please use MOREAD

INFO   : the flag for use of LIBINT has been found!

================================================================================
                                       INPUT FILE
================================================================================
NAME = 06_H2O_6_ring.in
|  1> #
|  2> # 06_H2O_6_ring tpss/aug-cc-pvt(+d)z
|  3> #
|  4> ! tpss d3bj aug-cc-pvt(+d)z def2/j grid4 nofinalgrid opt xyzfile numfreq
|  5> 
|  6> *xyz 0 1
|  7> O	0	2.709181	0.148099
|  8> H	-0.122498	3.233153	0.940879
|  9> H	-0.836919	2.216592	0.034772
| 10> O	-2.346219	-1.35459	0.148099
| 11> H	-1.501165	-1.833089	0.034772
| 12> H	-2.738743	-1.722662	0.940879
| 13> O	2.34622	1.354591	-0.148098
| 14> H	2.738743	1.722663	-0.940878
| 15> H	1.501165	1.83309	-0.034772
| 16> O	0	-2.709181	-0.148098
| 17> H	0.83692	-2.216591	-0.034772
| 18> H	0.122498	-3.233152	-0.940878
| 19> O	2.34622	-1.35459	0.148099
| 20> H	2.861241	-1.510489	0.940879
| 21> H	2.338085	-0.383502	0.034772
| 22> O	-2.346219	1.354591	-0.148098
| 23> H	-2.861241	1.51049	-0.940878
| 24> H	-2.338084	0.383502	-0.034772
| 25> *
| 26> 
| 27> %maxcore 5000
| 28> 
| 29> %pal
| 30> nprocs 24
| 31> end
| 32> 
| 33> %geom
| 34> Calc_Hess true # Request an exact Hessian in the first optimization step
| 35> NumHess true #  Request the numerical exact Hessian (only one available for this method).
| 36> Recalc_Hess 10 # Recalculate the exact Hessian every 10 steps.
| 37> end
| 38> 
| 39> 
| 40>                          ****END OF INPUT****
================================================================================

                       *****************************
                       * Geometry Optimization Run *
                       *****************************

Geometry optimization settings:
Update method            Update   .... BFGS
Choice of coordinates    CoordSys .... Z-matrix Internals
Initial Hessian          InHess   .... Almoef's Model

Convergence Tolerances:
Energy Change            TolE     ....  5.0000e-06 Eh
Max. Gradient            TolMAXG  ....  3.0000e-04 Eh/bohr
RMS Gradient             TolRMSG  ....  1.0000e-04 Eh/bohr
Max. Displacement        TolMAXD  ....  4.0000e-03 bohr
RMS Displacement         TolRMSD  ....  2.0000e-03 bohr
Strict Convergence                ....  False
------------------------------------------------------------------------------
                        ORCA OPTIMIZATION COORDINATE SETUP
------------------------------------------------------------------------------

The optimization will be done in new redundant internal coordinates
Making redundant internal coordinates   ...  (new redundants) done
Evaluating the initial hessian          ...  (Is done on the fly) done
Evaluating the coordinates              ...  done
Calculating the B-matrix                .... done
Calculating the G-matrix                .... done
Diagonalizing the G-matrix              .... done
The first mode is                       ....   24
The number of degrees of freedom        ....   48

    -----------------------------------------------------------------
                    Redundant Internal Coordinates


    -----------------------------------------------------------------
         Definition                    Initial Value    d2E/dq (diagonal element)
    -----------------------------------------------------------------
      1. B(H   1,O   0)                  0.9582         0.000000   
      2. B(H   2,O   0)                  0.9777         0.000000   
      3. B(H   4,O   3)                  0.9777         0.000000   
      4. B(H   5,O   3)                  0.9582         0.000000   
      5. B(H   7,O   6)                  0.9582         0.000000   
      6. B(H   8,O   6)                  0.9777         0.000000   
      7. B(H   8,O   0)                  1.7477         0.000000   
      8. B(O   9,H   4)                  1.7477         0.000000   
      9. B(H  10,O   9)                  0.9777         0.000000   
     10. B(H  11,O   9)                  0.9582         0.000000   
     11. B(O  12,H  10)                  1.7477         0.000000   
     12. B(H  13,O  12)                  0.9581         0.000000   
     13. B(H  14,O  12)                  0.9777         0.000000   
     14. B(H  14,O   6)                  1.7477         0.000000   
     15. B(O  15,H   2)                  1.7477         0.000000   
     16. B(H  16,O  15)                  0.9582         0.000000   
     17. B(H  17,O   3)                  1.7477         0.000000   
     18. B(H  17,O  15)                  0.9777         0.000000   
     19. A(H   1,O   0,H   2)          105.1878         0.000000   
     20. A(H   2,O   0,H   8)          118.0709         0.000000   
     21. A(H   1,O   0,H   8)          118.0679         0.000000   
     22. L(O   0,H   2,O  15,H   8, 1) 180.8470         0.000000   
     23. L(O   0,H   2,O  15,H   8, 2) 179.2123         0.000000   
     24. A(H   4,O   3,H  17)          118.0709         0.000000   
     25. A(H   4,O   3,H   5)          105.1878         0.000000   
     26. A(H   5,O   3,H  17)          118.0679         0.000000   
     27. L(O   3,H   4,O   9,H  17, 1) 180.8470         0.000000   
     28. L(O   3,H   4,O   9,H  17, 2) 179.2123         0.000000   
     29. A(H   7,O   6,H   8)          105.1877         0.000000   
     30. A(H   8,O   6,H  14)          118.0709         0.000000   
     31. A(H   7,O   6,H  14)          118.0679         0.000000   
     32. L(O   0,H   8,O   6,H  14, 2) 179.2125         0.000000   
     33. L(O   0,H   8,O   6,H  14, 1) 180.8470         0.000000   
     34. A(H   4,O   9,H  11)          118.0679         0.000000   
     35. A(H   4,O   9,H  10)          118.0709         0.000000   
     36. A(H  10,O   9,H  11)          105.1878         0.000000   
     37. L(O   9,H  10,O  12,H   4, 2) 180.7875         0.000000   
     38. L(O   9,H  10,O  12,H   4, 1) 180.8470         0.000000   
     39. A(H  10,O  12,H  14)          118.0709         0.000000   
     40. A(H  10,O  12,H  13)          118.0679         0.000000   
     41. A(H  13,O  12,H  14)          105.1878         0.000000   
     42. L(O   6,H  14,O  12,H  10, 2) 180.7877         0.000000   
     43. L(O   6,H  14,O  12,H  10, 1) 180.8470         0.000000   
     44. A(H   2,O  15,H  17)          118.0709         0.000000   
     45. A(H   2,O  15,H  16)          118.0679         0.000000   
     46. A(H  16,O  15,H  17)          105.1877         0.000000   
     47. L(O   3,H  17,O  15,H   2, 2) 179.2125         0.000000   
     48. L(O   3,H  17,O  15,H   2, 1) 180.8470         0.000000   
     49. D(H  14,O   6,O   0,H   1)    107.3428         0.000000   
     50. D(H  14,O   6,O   0,H   2)    -21.3696         0.000000   
     51. D(H   7,O   6,O   0,H   1)   -118.5759         0.000000   
     52. D(H   7,O   6,O   0,H   2)    112.7117         0.000000   
     53. D(H  10,O   9,O   3,H  17)     21.3696         0.000000   
     54. D(H  10,O   9,O   3,H   5)   -112.7118         0.000000   
     55. D(H  11,O   9,O   3,H   5)    118.5759         0.000000   
     56. D(H  11,O   9,O   3,H  17)   -107.3427         0.000000   
     57. D(H  13,O  12,O   9,H   4)    107.3427         0.000000   
     58. D(H  13,O  12,O   9,H  11)   -118.5759         0.000000   
     59. D(H  10,O  12,O   6,H   8)     21.3696         0.000000   
     60. D(H  10,O  12,O   6,H   7)   -107.3427         0.000000   
     61. D(H  13,O  12,O   6,H   8)   -112.7118         0.000000   
     62. D(H  14,O  12,O   9,H  11)    112.7117         0.000000   
     63. D(H  13,O  12,O   6,H   7)    118.5760         0.000000   
     64. D(H  14,O  12,O   9,H   4)    -21.3696         0.000000   
     65. D(H   2,O  15,O   3,H   5)    107.3428         0.000000   
     66. D(H  16,O  15,O   3,H   5)   -118.5758         0.000000   
     67. D(H  16,O  15,O   3,H   4)    112.7118         0.000000   
     68. D(H  17,O  15,O   0,H   8)     21.3696         0.000000   
     69. D(H  17,O  15,O   0,H   1)   -112.7118         0.000000   
     70. D(H   2,O  15,O   3,H   4)    -21.3696         0.000000   
     71. D(H  16,O  15,O   0,H   8)   -107.3427         0.000000   
     72. D(H  16,O  15,O   0,H   1)    118.5759         0.000000   
    -----------------------------------------------------------------

Number of atoms                         .... 18
Number of degrees of freedom            .... 72

         *************************************************************
         *                GEOMETRY OPTIMIZATION CYCLE   1            *
         *************************************************************
---------------------------------
CARTESIAN COORDINATES (ANGSTROEM)
---------------------------------
  O      0.000000    2.709181    0.148099
  H     -0.122498    3.233153    0.940879
  H     -0.836919    2.216592    0.034772
  O     -2.346219   -1.354590    0.148099
  H     -1.501165   -1.833089    0.034772
  H     -2.738743   -1.722662    0.940879
  O      2.346220    1.354591   -0.148098
  H      2.738743    1.722663   -0.940878
  H      1.501165    1.833090   -0.034772
  O      0.000000   -2.709181   -0.148098
  H      0.836920   -2.216591   -0.034772
  H      0.122498   -3.233152   -0.940878
  O      2.346220   -1.354590    0.148099
  H      2.861241   -1.510489    0.940879
  H      2.338085   -0.383502    0.034772
  O     -2.346219    1.354591   -0.148098
  H     -2.861241    1.510490   -0.940878
  H     -2.338084    0.383502   -0.034772

----------------------------
CARTESIAN COORDINATES (A.U.)
----------------------------
  NO LB      ZA    FRAG     MASS         X           Y           Z
   0 O     8.0000    0    15.999    0.000000    5.119610    0.279867
   1 H     1.0000    0     1.008   -0.231488    6.109774    1.778004
   2 H     1.0000    0     1.008   -1.581548    4.188752    0.065710
   3 O     8.0000    0    15.999   -4.433711   -2.559804    0.279867
   4 H     1.0000    0     1.008   -2.836791   -3.464036    0.065710
   5 H     1.0000    0     1.008   -5.175474   -3.255359    1.778004
   6 O     8.0000    0    15.999    4.433713    2.559806   -0.279865
   7 H     1.0000    0     1.008    5.175474    3.255361   -1.778002
   8 H     1.0000    0     1.008    2.836791    3.464038   -0.065710
   9 O     8.0000    0    15.999    0.000000   -5.119610   -0.279865
  10 H     1.0000    0     1.008    1.581550   -4.188750   -0.065710
  11 H     1.0000    0     1.008    0.231488   -6.109772   -1.778002
  12 O     8.0000    0    15.999    4.433713   -2.559804    0.279867
  13 H     1.0000    0     1.008    5.406962   -2.854411    1.778004
  14 H     1.0000    0     1.008    4.418340   -0.724714    0.065710
  15 O     8.0000    0    15.999   -4.433711    2.559806   -0.279865
  16 H     1.0000    0     1.008   -5.406962    2.854412   -1.778002
  17 H     1.0000    0     1.008   -4.418338    0.724714   -0.065710

--------------------------------
INTERNAL COORDINATES (ANGSTROEM)
--------------------------------
 O      0   0   0     0.000000000000     0.00000000     0.00000000
 H      1   0   0     0.958150585862     0.00000000     0.00000000
 H      1   2   0     0.977711790054   105.18781736     0.00000000
 O      3   1   2     3.878681525474   142.52143282   247.82102299
 H      4   3   1     0.977711902784    96.36667252   339.89067784
 H      4   3   1     0.958150414163   122.49877551    92.44971867
 O      1   2   3     2.725324754834   118.15109370   225.39579020
 H      7   1   2     0.958150004495   104.57634301   241.42412740
 H      7   1   2     0.977712651193     0.63329954    76.51804352
 O      5   4   3     1.747705634994   179.01235653   141.32391584
 H     10   5   4     0.977713033960   118.07085768   232.04877984
 H     10   5   4     0.958150039005   118.06791005   103.67031070
 O     11  10   5     1.747705357502   179.01239509   210.64869987
 H     13  11  10     0.958149913658   118.06793374   256.33548560
 H     13  11  10     0.977712171806   118.07087130   127.95692155
 O      3   1   2     1.747705252868   179.01234488    15.13405571
 H     16   3   1     0.958150451174   118.06794621   103.66965614
 H     16   3   1     0.977713049121   118.07088973   232.04815538

---------------------------
INTERNAL COORDINATES (A.U.)
---------------------------
 O      0   0   0     0.000000000000     0.00000000     0.00000000
 H      1   0   0     1.810642202336     0.00000000     0.00000000
 H      1   2   0     1.847607521108   105.18781736     0.00000000
 O      3   1   2     7.329645843846   142.52143282   247.82102299
 H      4   3   1     1.847607734137    96.36667252   339.89067784
 H      4   3   1     1.810641877871   122.49877551    92.44971867
 O      1   2   3     5.150117412632   118.15109370   225.39579020
 H      7   1   2     1.810641103710   104.57634301   241.42412740
 H      7   1   2     1.847609148424     0.63329954    76.51804352
 O      5   4   3     3.302685012849   179.01235653   141.32391584
 H     10   5   4     1.847609871750   118.07085768   232.04877984
 H     10   5   4     1.810641168925   118.06791005   103.67031070
 O     11  10   5     3.302684488466   179.01239509   210.64869987
 H     13  11  10     1.810640932053   118.06793374   256.33548560
 H     13  11  10     1.847608242515   118.07087130   127.95692155
 O      3   1   2     3.302684290735   179.01234488    15.13405571
 H     16   3   1     1.810641947812   118.06794621   103.66965614
 H     16   3   1     1.847609900400   118.07088973   232.04815538

---------------------
BASIS SET INFORMATION
---------------------
There are 2 groups of distinct atoms

 Group   1 Type O   : 19s6p3d2f contracted to 5s4p3d2f pattern {88111/3111/111/11}
 Group   2 Type H   : 6s3p2d contracted to 4s3p2d pattern {3111/111/11}

Atom   0O    basis set group =>   1
Atom   1H    basis set group =>   2
Atom   2H    basis set group =>   2
Atom   3O    basis set group =>   1
Atom   4H    basis set group =>   2
Atom   5H    basis set group =>   2
Atom   6O    basis set group =>   1
Atom   7H    basis set group =>   2
Atom   8H    basis set group =>   2
Atom   9O    basis set group =>   1
Atom  10H    basis set group =>   2
Atom  11H    basis set group =>   2
Atom  12O    basis set group =>   1
Atom  13H    basis set group =>   2
Atom  14H    basis set group =>   2
Atom  15O    basis set group =>   1
Atom  16H    basis set group =>   2
Atom  17H    basis set group =>   2
---------------------------------
AUXILIARY/J BASIS SET INFORMATION
---------------------------------
There are 2 groups of distinct atoms

 Group   1 Type O   : 12s5p4d2f1g contracted to 6s4p3d1f1g pattern {711111/2111/211/2/1}
 Group   2 Type H   : 5s2p1d contracted to 3s1p1d pattern {311/2/1}

Atom   0O    basis set group =>   1
Atom   1H    basis set group =>   2
Atom   2H    basis set group =>   2
Atom   3O    basis set group =>   1
Atom   4H    basis set group =>   2
Atom   5H    basis set group =>   2
Atom   6O    basis set group =>   1
Atom   7H    basis set group =>   2
Atom   8H    basis set group =>   2
Atom   9O    basis set group =>   1
Atom  10H    basis set group =>   2
Atom  11H    basis set group =>   2
Atom  12O    basis set group =>   1
Atom  13H    basis set group =>   2
Atom  14H    basis set group =>   2
Atom  15O    basis set group =>   1
Atom  16H    basis set group =>   2
Atom  17H    basis set group =>   2


           ************************************************************
           *        Program running with 24 parallel MPI-processes    *
           *              working on a common directory               *
           ************************************************************
------------------------------------------------------------------------------
                           ORCA GTO INTEGRAL CALCULATION
                           -- RI-GTO INTEGRALS CHOSEN --
------------------------------------------------------------------------------

                         BASIS SET STATISTICS AND STARTUP INFO

Gaussian basis set:
 # of primitive gaussian shells          ...  312
 # of primitive gaussian functions       ...  696
 # of contracted shells                  ...  192
 # of contracted basis functions         ...  552
 Highest angular momentum                ...    3
 Maximum contraction depth               ...    8
Auxiliary gaussian basis set:
 # of primitive gaussian shells          ...  240
 # of primitive gaussian functions       ...  612
 # of contracted shells                  ...  150
 # of contracted aux-basis functions     ...  426
 Highest angular momentum                ...    4
 Maximum contraction depth               ...    7
Ratio of auxiliary to basis functions    ...  0.77
Integral package used                  ... LIBINT
 One Electron integrals                  ... done
 Ordering auxiliary basis shells         ... done
 Integral threshhold             Thresh  ...  2.500e-11
 Primitive cut-off               TCut    ...  2.500e-12
 Pre-screening matrix                    ... done
 Shell pair data                         ... 
 Ordering of the shell pairs             ... done (   0.003 sec) 16451 of 18528 pairs
 Determination of significant pairs      ... done (   0.000 sec)
 Creation of shell pair data             ... done (   0.002 sec)
 Storage of shell pair data              ... done (   0.009 sec)
 Shell pair data done in (   0.013 sec)
 Computing two index integrals           ... done
 Cholesky decomposition of the V-matrix  ... done


Timings:
 Total evaluation time                   ...   0.447 sec (  0.007 min)
 One electron matrix time                ...   0.125 sec (  0.002 min) = 28.0%
 Schwartz matrix evaluation time         ...   0.198 sec (  0.003 min) = 44.3%
 Two index repulsion integral time       ...   0.003 sec (  0.000 min) =  0.8%
 Cholesky decomposition of V             ...   0.084 sec (  0.001 min) = 18.8%
 Three index repulsion integral time     ...   0.000 sec (  0.000 min) =  0.0%



           ************************************************************
           *        Program running with 24 parallel MPI-processes    *
           *              working on a common directory               *
           ************************************************************
-------------------------------------------------------------------------------
                                 ORCA SCF
-------------------------------------------------------------------------------

------------
SCF SETTINGS
------------
Hamiltonian:
 Density Functional     Method          .... DFT(GTOs)
 Exchange Functional    Exchange        .... TPSS
 Correlation Functional Correlation     .... TPSS
 LDA part of GGA corr.  LDAOpt          .... PW91-LDA
 Gradients option       PostSCFGGA      .... off
   Density functional embedding theory  .... OFF
   NL short-range parameter             ....  5.000000
 RI-approximation to the Coulomb term is turned on
   Number of auxiliary basis functions  .... 426


General Settings:
 Integral files         IntName         .... 06_H2O_6_ring
 Hartree-Fock type      HFTyp           .... RHF
 Total Charge           Charge          ....    0
 Multiplicity           Mult            ....    1
 Number of Electrons    NEL             ....   60
 Basis Dimension        Dim             ....  552
 Nuclear Repulsion      ENuc            ....    268.3173414251 Eh

Convergence Acceleration:
 DIIS                   CNVDIIS         .... on
   Start iteration      DIISMaxIt       ....    12
   Startup error        DIISStart       ....  0.200000
   # of expansion vecs  DIISMaxEq       ....     5
   Bias factor          DIISBfac        ....   1.050
   Max. coefficient     DIISMaxC        ....  10.000
 Newton-Raphson         CNVNR           .... off
 SOSCF                  CNVSOSCF        .... on
   Start iteration      SOSCFMaxIt      ....   150
   Startup grad/error   SOSCFStart      ....  0.003300
 Level Shifting         CNVShift        .... on
   Level shift para.    LevelShift      ....    0.2500
   Turn off err/grad.   ShiftErr        ....    0.0010
 Zerner damping         CNVZerner       .... off
 Static damping         CNVDamp         .... on
   Fraction old density DampFac         ....    0.7000
   Max. Damping (<1)    DampMax         ....    0.9800
   Min. Damping (>=0)   DampMin         ....    0.0000
   Turn off err/grad.   DampErr         ....    0.1000
 Fernandez-Rico         CNVRico         .... off

SCF Procedure:
 Maximum # iterations   MaxIter         ....   125
 SCF integral mode      SCFMode         .... Direct
   Integral package                     .... LIBINT
 Reset frequency        DirectResetFreq ....    20
 Integral Threshold     Thresh          ....  2.500e-11 Eh
 Primitive CutOff       TCut            ....  2.500e-12 Eh

Convergence Tolerance:
 Convergence Check Mode ConvCheckMode   .... Total+1el-Energy
 Convergence forced     ConvForced      .... 0
 Energy Change          TolE            ....  1.000e-08 Eh
 1-El. energy change                    ....  1.000e-05 Eh
 Orbital Gradient       TolG            ....  1.000e-05
 Orbital Rotation angle TolX            ....  1.000e-05
 DIIS Error             TolErr          ....  5.000e-07


Diagonalization of the overlap matrix:
Smallest eigenvalue                        ... 1.234e-04
Time for diagonalization                   ...    0.053 sec
Threshold for overlap eigenvalues          ... 1.000e-08
Number of eigenvalues below threshold      ... 0
Time for construction of square roots      ...    0.044 sec
Total time needed                          ...    0.098 sec

-------------------
DFT GRID GENERATION
-------------------

General Integration Accuracy     IntAcc      ...  4.670
Radial Grid Type                 RadialGrid  ... Gauss-Chebyshev
Angular Grid (max. acc.)         AngularGrid ... Lebedev-302
Angular grid pruning method      GridPruning ... 3 (G Style)
Weight generation scheme         WeightScheme... Becke
Basis function cutoff            BFCut       ...    1.0000e-11
Integration weight cutoff        WCut        ...    1.0000e-14
Grids for H and He will be reduced by one unit

# of grid points (after initial pruning)     ...  78000 (   0.0 sec)
# of grid points (after weights+screening)   ...  72996 (   0.0 sec)
nearest neighbour list constructed           ...    0.0 sec
Grid point re-assignment to atoms done       ...    0.0 sec
Grid point division into batches done        ...    0.2 sec
Reduced shell lists constructed in    0.2 sec

Total number of grid points                  ...    72996
Total number of batches                      ...     1152
Average number of points per batch           ...       63
Average number of grid points per atom       ...     4055
Average number of shells per batch           ...   118.88 (61.92%)
Average number of basis functions per batch  ...   321.94 (58.32%)
Average number of large shells per batch     ...    92.53 (77.84%)
Average number of large basis fcns per batch ...   241.84 (75.12%)
Maximum spatial batch extension              ...   8.81, 11.76,  8.41 au
Average spatial batch extension              ...   0.07,  0.08,  0.06 au

Time for grid setup =    0.301 sec

------------------------------
INITIAL GUESS: MODEL POTENTIAL
------------------------------
Loading Hartree-Fock densities                     ... done
Calculating cut-offs                               ... done
Setting up the integral package                    ... done
Initializing the effective Hamiltonian             ... done
Starting the Coulomb interaction                   ... done (   0.0 sec)
Reading the grid                                   ... done
Mapping shells                                     ... done
Starting the XC term evaluation                    ... done (   0.1 sec)
  promolecular density results
     # of electrons  =     59.994135459
     EX              =    -52.455319726
     EC              =     -1.938781405
     EX+EC           =    -54.394101131
Transforming the Hamiltonian                       ... done (   0.0 sec)
Diagonalizing the Hamiltonian                      ... done (   0.0 sec)
Back transforming the eigenvectors                 ... done (   0.0 sec)
Now organizing SCF variables                       ... done
                      ------------------
                      INITIAL GUESS DONE (   0.6 sec)
                      ------------------
--------------
SCF ITERATIONS
--------------
ITER       Energy         Delta-E        Max-DP      RMS-DP      [F,P]     Damp
               ***  Starting incremental Fock matrix formation  ***
  0   -458.4157098194   0.000000000000 0.08288306  0.00096907  0.3142572 0.7000
  1   -458.6509869797  -0.235277160293 0.04036228  0.00054316  0.1119528 0.7000
                               ***Turning on DIIS***
  2   -458.7156822164  -0.064695236710 0.04873577  0.00063296  0.0250473 0.0000
  3   -458.8470311935  -0.131348977164 0.01406414  0.00025227  0.0648198 0.0000
  4   -458.8684229894  -0.021391795852 0.00319625  0.00006327  0.0123210 0.0000
                      *** Initiating the SOSCF procedure ***
                           *** Shutting down DIIS ***
                      *** Re-Reading the Fockian *** 
                      *** Removing any level shift *** 
ITER      Energy       Delta-E        Grad      Rot      Max-DP    RMS-DP
  5   -458.86960994  -0.0011869509  0.000875  0.000875  0.001550  0.000029
               *** Restarting incremental Fock matrix formation ***
  6   -458.86968777  -0.0000778277  0.000427  0.001294  0.002092  0.000034
  7   -458.86968911  -0.0000013423  0.000387  0.000218  0.000697  0.000012
  8   -458.86969865  -0.0000095378  0.000064  0.000235  0.000524  0.000009
  9   -458.86969917  -0.0000005196  0.000020  0.000054  0.000098  0.000002
                  ***Gradient check signals convergence***
              ***Rediagonalizing the Fockian in SOSCF/NRSCF***

               *****************************************************
               *                     SUCCESS                       *
               *           SCF CONVERGED AFTER  10 CYCLES          *
               *****************************************************


----------------
TOTAL SCF ENERGY
----------------

Total Energy       :         -458.86969921 Eh          -12486.47932 eV

Components:
Nuclear Repulsion  :          268.31734143 Eh            7301.28605 eV
Electronic Energy  :         -727.18704063 Eh          -19787.76537 eV
One Electron Energy:        -1164.95213756 Eh          -31699.95926 eV
Two Electron Energy:          437.76509693 Eh           11912.19389 eV

Virial components:
Potential Energy   :         -915.61492499 Eh          -24915.14877 eV
Kinetic Energy     :          456.74522578 Eh           12428.66945 eV
Virial Ratio       :            2.00465133


DFT components:
N(Alpha)           :       30.000010791140 electrons
N(Beta)            :       30.000010791140 electrons
N(Total)           :       60.000021582280 electrons
E(X)               :      -54.098392041729 Eh       
E(C)               :       -1.992480405895 Eh       
E(XC)              :      -56.090872447624 Eh       
DFET-embed. en.    :        0.000000000000 Eh       

---------------
SCF CONVERGENCE
---------------

  Last Energy change         ...   -4.1525e-08  Tolerance :   1.0000e-08
  Last MAX-Density change    ...    6.8721e-06  Tolerance :   1.0000e-07
  Last RMS-Density change    ...    9.7461e-08  Tolerance :   5.0000e-09
  Last Orbital Gradient      ...    2.2952e-06  Tolerance :   1.0000e-05
  Last Orbital Rotation      ...    3.8264e-06  Tolerance :   1.0000e-05

             **** THE GBW FILE WAS UPDATED (06_H2O_6_ring.gbw) ****
             **** DENSITY FILE WAS UPDATED (06_H2O_6_ring.scfp) ****
             **** ENERGY FILE WAS UPDATED (06_H2O_6_ring.en.tmp) ****
             **** THE GBW FILE WAS UPDATED (06_H2O_6_ring.gbw) ****
             **** DENSITY FILE WAS UPDATED (06_H2O_6_ring.scfp) ****
----------------
ORBITAL ENERGIES
----------------

  NO   OCC          E(Eh)            E(eV) 
   0   2.0000     -18.880334      -513.7600 
   1   2.0000     -18.880333      -513.7600 
   2   2.0000     -18.880330      -513.7599 
   3   2.0000     -18.880328      -513.7598 
   4   2.0000     -18.880326      -513.7598 
   5   2.0000     -18.880324      -513.7597 
   6   2.0000      -0.954627       -25.9767 
   7   2.0000      -0.948739       -25.8165 
   8   2.0000      -0.948738       -25.8165 
   9   2.0000      -0.936417       -25.4812 
  10   2.0000      -0.936416       -25.4812 
  11   2.0000      -0.929924       -25.3045 
  12   2.0000      -0.483869       -13.1667 
  13   2.0000      -0.482751       -13.1363 
  14   2.0000      -0.482750       -13.1363 
  15   2.0000      -0.482539       -13.1306 
  16   2.0000      -0.482154       -13.1201 
  17   2.0000      -0.482153       -13.1201 
  18   2.0000      -0.387265       -10.5380 
  19   2.0000      -0.368736       -10.0338 
  20   2.0000      -0.368735       -10.0338 
  21   2.0000      -0.328637        -8.9427 
  22   2.0000      -0.328636        -8.9426 
  23   2.0000      -0.307437        -8.3658 
  24   2.0000      -0.267896        -7.2898 
  25   2.0000      -0.267894        -7.2898 
  26   2.0000      -0.267266        -7.2727 
  27   2.0000      -0.267078        -7.2676 
  28   2.0000      -0.267077        -7.2675 
  29   2.0000      -0.266253        -7.2451 
  30   0.0000      -0.032753        -0.8913 
  31   0.0000      -0.012310        -0.3350 
  32   0.0000      -0.012294        -0.3345 
  33   0.0000       0.006303         0.1715 
  34   0.0000       0.009705         0.2641 
  35   0.0000       0.009716         0.2644 
  36   0.0000       0.039619         1.0781 
  37   0.0000       0.039875         1.0850 
  38   0.0000       0.039922         1.0863 
  39   0.0000       0.051201         1.3932 
  40   0.0000       0.062772         1.7081 
  41   0.0000       0.062799         1.7089 
  42   0.0000       0.070406         1.9158 
  43   0.0000       0.080872         2.2006 
  44   0.0000       0.080925         2.2021 
  45   0.0000       0.084939         2.3113 
  46   0.0000       0.099475         2.7068 
  47   0.0000       0.099479         2.7069 
  48   0.0000       0.101287         2.7562 
  49   0.0000       0.113080         3.0771 
  50   0.0000       0.120248         3.2721 
  51   0.0000       0.120365         3.2753 
  52   0.0000       0.127341         3.4651 
  53   0.0000       0.127457         3.4683 
  54   0.0000       0.131271         3.5721 
  55   0.0000       0.135186         3.6786 
  56   0.0000       0.149346         4.0639 
  57   0.0000       0.149403         4.0654 
  58   0.0000       0.165778         4.5110 
  59   0.0000       0.165902         4.5144 
  60   0.0000       0.169107         4.6016 
  61   0.0000       0.172639         4.6978 
  62   0.0000       0.172666         4.6985 
  63   0.0000       0.173395         4.7183 
  64   0.0000       0.185452         5.0464 
  65   0.0000       0.185515         5.0481 
  66   0.0000       0.194190         5.2842 
  67   0.0000       0.202288         5.5045 
  68   0.0000       0.202349         5.5062 
  69   0.0000       0.203624         5.5409 
  70   0.0000       0.203652         5.5417 
  71   0.0000       0.213584         5.8119 
  72   0.0000       0.232061         6.3147 
  73   0.0000       0.251861         6.8535 
  74   0.0000       0.260817         7.0972 
  75   0.0000       0.260880         7.0989 
  76   0.0000       0.262797         7.1511 
  77   0.0000       0.262828         7.1519 
  78   0.0000       0.279230         7.5982 
  79   0.0000       0.284274         7.7355 
  80   0.0000       0.290353         7.9009 
  81   0.0000       0.290578         7.9070 
  82   0.0000       0.290732         7.9112 
  83   0.0000       0.299313         8.1447 
  84   0.0000       0.299407         8.1473 
  85   0.0000       0.302754         8.2384 
  86   0.0000       0.319776         8.7016 
  87   0.0000       0.319951         8.7063 
  88   0.0000       0.322338         8.7713 
  89   0.0000       0.322452         8.7744 
  90   0.0000       0.334152         9.0927 
  91   0.0000       0.336204         9.1486 
  92   0.0000       0.337291         9.1782 
  93   0.0000       0.337416         9.1815 
  94   0.0000       0.345044         9.3891 
  95   0.0000       0.345251         9.3948 
  96   0.0000       0.361907         9.8480 
  97   0.0000       0.367118         9.9898 
  98   0.0000       0.367216         9.9925 
  99   0.0000       0.367962        10.0128 
 100   0.0000       0.368139        10.0176 
 101   0.0000       0.371968        10.1218 
 102   0.0000       0.391655        10.6575 
 103   0.0000       0.391749        10.6600 
 104   0.0000       0.400803        10.9064 
 105   0.0000       0.400931        10.9099 
 106   0.0000       0.405671        11.0389 
 107   0.0000       0.405873        11.0444 
 108   0.0000       0.466712        12.6999 
 109   0.0000       0.466939        12.7061 
 110   0.0000       0.469297        12.7702 
 111   0.0000       0.472837        12.8666 
 112   0.0000       0.478301        13.0152 
 113   0.0000       0.478399        13.0179 
 114   0.0000       0.484518        13.1844 
 115   0.0000       0.526237        14.3196 
 116   0.0000       0.536244        14.5919 
 117   0.0000       0.536377        14.5956 
 118   0.0000       0.544574        14.8186 
 119   0.0000       0.544688        14.8217 
 120   0.0000       0.570976        15.5370 
 121   0.0000       0.575324        15.6554 
 122   0.0000       0.585033        15.9196 
 123   0.0000       0.585087        15.9210 
 124   0.0000       0.614836        16.7305 
 125   0.0000       0.615183        16.7400 
 126   0.0000       0.619920        16.8689 
 127   0.0000       0.624506        16.9937 
 128   0.0000       0.624551        16.9949 
 129   0.0000       0.637613        17.3503 
 130   0.0000       0.656713        17.8701 
 131   0.0000       0.656931        17.8760 
 132   0.0000       0.675081        18.3699 
 133   0.0000       0.675158        18.3720 
 134   0.0000       0.679850        18.4996 
 135   0.0000       0.680720        18.5233 
 136   0.0000       0.680904        18.5283 
 137   0.0000       0.691925        18.8282 
 138   0.0000       0.703436        19.1415 
 139   0.0000       0.727654        19.8005 
 140   0.0000       0.727712        19.8021 
 141   0.0000       0.742282        20.1985 
 142   0.0000       0.745034        20.2734 
 143   0.0000       0.745184        20.2775 
 144   0.0000       0.762854        20.7583 
 145   0.0000       0.768213        20.9041 
 146   0.0000       0.768494        20.9118 
 147   0.0000       0.787517        21.4294 
 148   0.0000       0.787625        21.4324 
 149   0.0000       0.794224        21.6119 
 150   0.0000       0.804755        21.8985 
 151   0.0000       0.804836        21.9007 
 152   0.0000       0.814263        22.1572 
 153   0.0000       0.814403        22.1610 
 154   0.0000       0.820207        22.3190 
 155   0.0000       0.825020        22.4499 
 156   0.0000       0.834128        22.6978 
 157   0.0000       0.838859        22.8265 
 158   0.0000       0.838892        22.8274 
 159   0.0000       0.858463        23.3600 
 160   0.0000       0.858600        23.3637 
 161   0.0000       0.859574        23.3902 
 162   0.0000       0.864766        23.5315 
 163   0.0000       0.875491        23.8233 
 164   0.0000       0.875556        23.8251 
 165   0.0000       0.890471        24.2310 
 166   0.0000       0.890570        24.2336 
 167   0.0000       0.896740        24.4015 
 168   0.0000       0.900937        24.5158 
 169   0.0000       0.905992        24.6533 
 170   0.0000       0.906133        24.6571 
 171   0.0000       0.913643        24.8615 
 172   0.0000       0.913674        24.8623 
 173   0.0000       0.914075        24.8733 
 174   0.0000       0.914288        24.8790 
 175   0.0000       0.927094        25.2275 
 176   0.0000       0.928384        25.2626 
 177   0.0000       0.972989        26.4764 
 178   0.0000       0.973157        26.4809 
 179   0.0000       0.976429        26.5700 
 180   0.0000       0.983857        26.7721 
 181   0.0000       1.011961        27.5369 
 182   0.0000       1.027824        27.9685 
 183   0.0000       1.027894        27.9704 
 184   0.0000       1.040945        28.3256 
 185   0.0000       1.041087        28.3294 
 186   0.0000       1.045844        28.4589 
 187   0.0000       1.056873        28.7590 
 188   0.0000       1.058934        28.8151 
 189   0.0000       1.080757        29.4089 
 190   0.0000       1.080972        29.4148 
 191   0.0000       1.085250        29.5311 
 192   0.0000       1.085314        29.5329 
 193   0.0000       1.100767        29.9534 
 194   0.0000       1.100800        29.9543 
 195   0.0000       1.105108        30.0715 
 196   0.0000       1.116404        30.3789 
 197   0.0000       1.116524        30.3822 
 198   0.0000       1.123936        30.5838 
 199   0.0000       1.124905        30.6102 
 200   0.0000       1.164306        31.6824 
 201   0.0000       1.164601        31.6904 
 202   0.0000       1.167711        31.7750 
 203   0.0000       1.167987        31.7825 
 204   0.0000       1.194860        32.5138 
 205   0.0000       1.200105        32.6565 
 206   0.0000       1.214702        33.0537 
 207   0.0000       1.214895        33.0590 
 208   0.0000       1.230292        33.4779 
 209   0.0000       1.238477        33.7007 
 210   0.0000       1.238534        33.7022 
 211   0.0000       1.240943        33.7678 
 212   0.0000       1.240984        33.7689 
 213   0.0000       1.243349        33.8333 
 214   0.0000       1.283210        34.9179 
 215   0.0000       1.283495        34.9257 
 216   0.0000       1.287493        35.0345 
 217   0.0000       1.287526        35.0354 
 218   0.0000       1.300688        35.3935 
 219   0.0000       1.355604        36.8879 
 220   0.0000       1.355702        36.8905 
 221   0.0000       1.359043        36.9814 
 222   0.0000       1.361155        37.0389 
 223   0.0000       1.361279        37.0423 
 224   0.0000       1.362043        37.0631 
 225   0.0000       1.387451        37.7545 
 226   0.0000       1.400227        38.1021 
 227   0.0000       1.400341        38.1052 
 228   0.0000       1.410045        38.3693 
 229   0.0000       1.428126        38.8613 
 230   0.0000       1.438199        39.1354 
 231   0.0000       1.438341        39.1392 
 232   0.0000       1.449005        39.4294 
 233   0.0000       1.449202        39.4348 
 234   0.0000       1.522203        41.4213 
 235   0.0000       1.522295        41.4238 
 236   0.0000       1.533384        41.7255 
 237   0.0000       1.543147        41.9912 
 238   0.0000       1.543370        41.9972 
 239   0.0000       1.573969        42.8299 
 240   0.0000       1.595980        43.4288 
 241   0.0000       1.596062        43.4311 
 242   0.0000       1.599797        43.5327 
 243   0.0000       1.600087        43.5406 
 244   0.0000       1.612870        43.8884 
 245   0.0000       1.644681        44.7540 
 246   0.0000       1.644831        44.7581 
 247   0.0000       1.645428        44.7744 
 248   0.0000       1.648613        44.8611 
 249   0.0000       1.648741        44.8645 
 250   0.0000       1.673020        45.5252 
 251   0.0000       1.674841        45.5747 
 252   0.0000       1.692811        46.0637 
 253   0.0000       1.692978        46.0683 
 254   0.0000       1.729452        47.0608 
 255   0.0000       1.744046        47.4579 
 256   0.0000       1.744246        47.4633 
 257   0.0000       1.759466        47.8775 
 258   0.0000       1.797368        48.9089 
 259   0.0000       1.814753        49.3819 
 260   0.0000       1.814897        49.3858 
 261   0.0000       1.829088        49.7720 
 262   0.0000       1.829352        49.7792 
 263   0.0000       1.834568        49.9211 
 264   0.0000       1.882924        51.2370 
 265   0.0000       1.882954        51.2378 
 266   0.0000       1.919919        52.2436 
 267   0.0000       1.919955        52.2446 
 268   0.0000       1.924844        52.3777 
 269   0.0000       1.976141        53.7735 
 270   0.0000       2.034227        55.3541 
 271   0.0000       2.076900        56.5153 
 272   0.0000       2.076978        56.5174 
 273   0.0000       2.088272        56.8248 
 274   0.0000       2.088374        56.8275 
 275   0.0000       2.100255        57.1508 
 276   0.0000       2.157282        58.7026 
 277   0.0000       2.157293        58.7029 
 278   0.0000       2.164120        58.8887 
 279   0.0000       2.172446        59.1152 
 280   0.0000       2.192500        59.6610 
 281   0.0000       2.215181        60.2781 
 282   0.0000       2.220811        60.4313 
 283   0.0000       2.220838        60.4321 
 284   0.0000       2.221169        60.4411 
 285   0.0000       2.221331        60.4455 
 286   0.0000       2.223096        60.4935 
 287   0.0000       2.263449        61.5916 
 288   0.0000       2.263497        61.5929 
 289   0.0000       2.268277        61.7230 
 290   0.0000       2.302341        62.6499 
 291   0.0000       2.302391        62.6512 
 292   0.0000       2.302601        62.6570 
 293   0.0000       2.302707        62.6598 
 294   0.0000       2.320792        63.1520 
 295   0.0000       2.330059        63.4041 
 296   0.0000       2.330232        63.4088 
 297   0.0000       2.339310        63.6559 
 298   0.0000       2.370895        64.5153 
 299   0.0000       2.391910        65.0872 
 300   0.0000       2.392062        65.0913 
 301   0.0000       2.392751        65.1101 
 302   0.0000       2.403904        65.4135 
 303   0.0000       2.404116        65.4193 
 304   0.0000       2.436221        66.2929 
 305   0.0000       2.436486        66.3001 
 306   0.0000       2.442972        66.4767 
 307   0.0000       2.476414        67.3866 
 308   0.0000       2.476580        67.3912 
 309   0.0000       2.512827        68.3775 
 310   0.0000       2.518427        68.5299 
 311   0.0000       2.518579        68.5340 
 312   0.0000       2.520830        68.5953 
 313   0.0000       2.533479        68.9395 
 314   0.0000       2.533594        68.9426 
 315   0.0000       2.576448        70.1087 
 316   0.0000       2.584707        70.3334 
 317   0.0000       2.589235        70.4567 
 318   0.0000       2.589345        70.4597 
 319   0.0000       2.602303        70.8123 
 320   0.0000       2.602471        70.8168 
 321   0.0000       2.639120        71.8141 
 322   0.0000       2.666542        72.5603 
 323   0.0000       2.666720        72.5652 
 324   0.0000       2.693071        73.2822 
 325   0.0000       2.694871        73.3312 
 326   0.0000       2.695055        73.3362 
 327   0.0000       2.746212        74.7282 
 328   0.0000       2.746327        74.7314 
 329   0.0000       2.749175        74.8089 
 330   0.0000       2.749317        74.8127 
 331   0.0000       2.753789        74.9344 
 332   0.0000       2.783064        75.7310 
 333   0.0000       2.819077        76.7110 
 334   0.0000       2.819181        76.7138 
 335   0.0000       2.826435        76.9112 
 336   0.0000       2.845112        77.4194 
 337   0.0000       2.852452        77.6192 
 338   0.0000       2.852600        77.6232 
 339   0.0000       2.877642        78.3046 
 340   0.0000       2.877754        78.3077 
 341   0.0000       2.886408        78.5432 
 342   0.0000       2.929573        79.7177 
 343   0.0000       2.929829        79.7247 
 344   0.0000       2.987736        81.3004 
 345   0.0000       2.987844        81.3034 
 346   0.0000       3.023300        82.2682 
 347   0.0000       3.043683        82.8228 
 348   0.0000       3.544872        96.4609 
 349   0.0000       3.544886        96.4612 
 350   0.0000       3.548818        96.5683 
 351   0.0000       3.552257        96.6618 
 352   0.0000       3.567319        97.0717 
 353   0.0000       3.567344        97.0724 
 354   0.0000       3.831953       104.2727 
 355   0.0000       3.832034       104.2750 
 356   0.0000       3.834367       104.3384 
 357   0.0000       3.834385       104.3389 
 358   0.0000       3.842081       104.5483 
 359   0.0000       3.851275       104.7985 
 360   0.0000       3.874324       105.4257 
 361   0.0000       3.874356       105.4266 
 362   0.0000       3.874727       105.4367 
 363   0.0000       3.891279       105.8871 
 364   0.0000       3.918853       106.6374 
 365   0.0000       3.918948       106.6400 
 366   0.0000       3.944625       107.3387 
 367   0.0000       3.950493       107.4984 
 368   0.0000       3.959390       107.7405 
 369   0.0000       3.959425       107.7414 
 370   0.0000       3.977548       108.2346 
 371   0.0000       3.977586       108.2356 
 372   0.0000       3.989440       108.5582 
 373   0.0000       3.989469       108.5590 
 374   0.0000       3.989540       108.5609 
 375   0.0000       4.001997       108.8999 
 376   0.0000       4.002031       108.9008 
 377   0.0000       4.031536       109.7037 
 378   0.0000       4.047412       110.1357 
 379   0.0000       4.060827       110.5007 
 380   0.0000       4.060865       110.5018 
 381   0.0000       4.089737       111.2874 
 382   0.0000       4.089802       111.2892 
 383   0.0000       4.180025       113.7443 
 384   0.0000       4.180735       113.7636 
 385   0.0000       4.185838       113.9024 
 386   0.0000       4.185844       113.9026 
 387   0.0000       4.211622       114.6041 
 388   0.0000       4.232657       115.1764 
 389   0.0000       4.232697       115.1776 
 390   0.0000       4.253698       115.7490 
 391   0.0000       4.278516       116.4243 
 392   0.0000       4.284986       116.6004 
 393   0.0000       4.285145       116.6047 
 394   0.0000       4.298225       116.9606 
 395   0.0000       4.298263       116.9617 
 396   0.0000       4.341574       118.1402 
 397   0.0000       4.341695       118.1435 
 398   0.0000       4.349700       118.3614 
 399   0.0000       4.349783       118.3636 
 400   0.0000       4.350081       118.3717 
 401   0.0000       4.350724       118.3892 
 402   0.0000       4.383600       119.2838 
 403   0.0000       4.388289       119.4114 
 404   0.0000       4.389939       119.4563 
 405   0.0000       4.389992       119.4578 
 406   0.0000       4.390748       119.4783 
 407   0.0000       4.390829       119.4805 
 408   0.0000       4.420477       120.2873 
 409   0.0000       4.420509       120.2882 
 410   0.0000       4.448610       121.0528 
 411   0.0000       4.465920       121.5239 
 412   0.0000       4.466020       121.5266 
 413   0.0000       4.482230       121.9677 
 414   0.0000       4.560007       124.0841 
 415   0.0000       4.572037       124.4114 
 416   0.0000       4.572155       124.4147 
 417   0.0000       4.578048       124.5750 
 418   0.0000       4.578121       124.5770 
 419   0.0000       4.669663       127.0680 
 420   0.0000       4.720324       128.4465 
 421   0.0000       4.726485       128.6142 
 422   0.0000       4.726538       128.6156 
 423   0.0000       4.745531       129.1325 
 424   0.0000       4.785664       130.2245 
 425   0.0000       4.785715       130.2259 
 426   0.0000       4.838222       131.6547 
 427   0.0000       4.871927       132.5719 
 428   0.0000       4.871946       132.5724 
 429   0.0000       4.875808       132.6775 
 430   0.0000       4.875852       132.6787 
 431   0.0000       4.878377       132.7474 
 432   0.0000       4.892288       133.1259 
 433   0.0000       4.950626       134.7134 
 434   0.0000       4.950697       134.7153 
 435   0.0000       4.960232       134.9748 
 436   0.0000       5.030216       136.8791 
 437   0.0000       5.030256       136.8802 
 438   0.0000       5.049972       137.4167 
 439   0.0000       5.060326       137.6985 
 440   0.0000       5.066001       137.8529 
 441   0.0000       5.066022       137.8535 
 442   0.0000       5.079040       138.2077 
 443   0.0000       5.079133       138.2102 
 444   0.0000       5.087577       138.4400 
 445   0.0000       5.126031       139.4864 
 446   0.0000       5.126049       139.4869 
 447   0.0000       5.192910       141.3063 
 448   0.0000       5.192951       141.3074 
 449   0.0000       5.230379       142.3259 
 450   0.0000       5.375379       146.2715 
 451   0.0000       5.375404       146.2722 
 452   0.0000       5.375695       146.2801 
 453   0.0000       5.389511       146.6560 
 454   0.0000       5.389526       146.6565 
 455   0.0000       5.403389       147.0337 
 456   0.0000       5.575909       151.7282 
 457   0.0000       5.576005       151.7308 
 458   0.0000       5.580461       151.8521 
 459   0.0000       5.580524       151.8538 
 460   0.0000       5.589505       152.0982 
 461   0.0000       5.603464       152.4780 
 462   0.0000       5.951469       161.9477 
 463   0.0000       6.008870       163.5097 
 464   0.0000       6.008948       163.5118 
 465   0.0000       6.038516       164.3164 
 466   0.0000       6.039739       164.3497 
 467   0.0000       6.039782       164.3508 
 468   0.0000       6.146601       167.2575 
 469   0.0000       6.147781       167.2896 
 470   0.0000       6.147866       167.2919 
 471   0.0000       6.151799       167.3990 
 472   0.0000       6.151870       167.4009 
 473   0.0000       6.166401       167.7963 
 474   0.0000       6.475912       176.2185 
 475   0.0000       6.481700       176.3760 
 476   0.0000       6.481737       176.3770 
 477   0.0000       6.516377       177.3196 
 478   0.0000       6.533325       177.7808 
 479   0.0000       6.533402       177.7829 
 480   0.0000       6.563194       178.5936 
 481   0.0000       6.563297       178.5964 
 482   0.0000       6.573499       178.8740 
 483   0.0000       6.659061       181.2023 
 484   0.0000       6.659086       181.2029 
 485   0.0000       6.718768       182.8270 
 486   0.0000       6.776346       184.3937 
 487   0.0000       6.802925       185.1170 
 488   0.0000       6.802968       185.1182 
 489   0.0000       6.810215       185.3154 
 490   0.0000       6.813120       185.3944 
 491   0.0000       6.813160       185.3955 
 492   0.0000       6.841502       186.1667 
 493   0.0000       6.851690       186.4440 
 494   0.0000       6.855737       186.5541 
 495   0.0000       6.855762       186.5548 
 496   0.0000       6.861665       186.7154 
 497   0.0000       6.861719       186.7169 
 498   0.0000       6.870486       186.9554 
 499   0.0000       6.907289       187.9569 
 500   0.0000       6.907347       187.9585 
 501   0.0000       6.916095       188.1965 
 502   0.0000       6.963563       189.4882 
 503   0.0000       6.971737       189.7106 
 504   0.0000       6.971790       189.7121 
 505   0.0000       6.972442       189.7298 
 506   0.0000       6.972476       189.7307 
 507   0.0000       7.009488       190.7379 
 508   0.0000       7.009493       190.7380 
 509   0.0000       7.019525       191.0110 
 510   0.0000       7.040779       191.5893 
 511   0.0000       7.040851       191.5913 
 512   0.0000       7.064804       192.2431 
 513   0.0000       7.071153       192.4159 
 514   0.0000       7.071199       192.4171 
 515   0.0000       7.113237       193.5610 
 516   0.0000       7.141469       194.3292 
 517   0.0000       7.141487       194.3297 
 518   0.0000       7.184425       195.4981 
 519   0.0000       7.220601       196.4826 
 520   0.0000       7.220695       196.4851 
 521   0.0000       7.224802       196.5969 
 522   0.0000       7.303482       198.7379 
 523   0.0000       7.367115       200.4694 
 524   0.0000       7.367146       200.4702 
 525   0.0000       7.428117       202.1293 
 526   0.0000       7.428151       202.1303 
 527   0.0000       7.445419       202.6001 
 528   0.0000       7.584486       206.3844 
 529   0.0000       7.598715       206.7716 
 530   0.0000       7.598782       206.7734 
 531   0.0000       7.611180       207.1107 
 532   0.0000       7.611231       207.1121 
 533   0.0000       7.624987       207.4864 
 534   0.0000       7.635352       207.7685 
 535   0.0000       7.635416       207.7702 
 536   0.0000       7.639092       207.8702 
 537   0.0000       7.707357       209.7279 
 538   0.0000       7.707407       209.7292 
 539   0.0000       7.771229       211.4659 
 540   0.0000       8.496938       231.2135 
 541   0.0000       8.498120       231.2456 
 542   0.0000       8.498206       231.2480 
 543   0.0000       8.544280       232.5017 
 544   0.0000       8.546694       232.5674 
 545   0.0000       8.546727       232.5683 
 546   0.0000      15.468041       420.9068 
 547   0.0000      15.930934       433.5027 
 548   0.0000      15.930973       433.5038 
 549   0.0000      16.802683       457.2242 
 550   0.0000      16.802717       457.2252 
 551   0.0000      17.261695       469.7146 

                    ********************************
                    * MULLIKEN POPULATION ANALYSIS *
                    ********************************

-----------------------
MULLIKEN ATOMIC CHARGES
-----------------------
   0 O :   -0.385877
   1 H :    0.120502
   2 H :    0.265704
   3 O :   -0.385570
   4 H :    0.265540
   5 H :    0.119681
   6 O :   -0.385570
   7 H :    0.119680
   8 H :    0.265541
   9 O :   -0.385877
  10 H :    0.265705
  11 H :    0.120501
  12 O :   -0.386334
  13 H :    0.119879
  14 H :    0.266475
  15 O :   -0.386334
  16 H :    0.119880
  17 H :    0.266475
Sum of atomic charges:   -0.0000000

--------------------------------
MULLIKEN REDUCED ORBITAL CHARGES
--------------------------------
  0 O s       :     3.952443  s :     3.952443
      pz      :     1.418184  p :     4.423232
      px      :     1.468190
      py      :     1.536858
      dz2     :     0.002297  d :     0.010365
      dxz     :     0.001622
      dyz     :     0.000261
      dx2y2   :     0.002797
      dxy     :     0.003387
      f0      :    -0.000029  f :    -0.000163
      f+1     :     0.000054
      f-1     :    -0.000077
      f+2     :    -0.000044
      f-2     :     0.000085
      f+3     :     0.000051
      f-3     :    -0.000203
  1 H s       :     0.750453  s :     0.750453
      pz      :     0.020812  p :     0.111160
      px      :     0.041356
      py      :     0.048991
      dz2     :     0.006873  d :     0.017886
      dxz     :     0.004803
      dyz     :     0.000751
      dx2y2   :     0.001638
      dxy     :     0.003820
  2 H s       :     0.627284  s :     0.627284
      pz      :     0.038662  p :     0.056672
      px      :    -0.008639
      py      :     0.026648
      dz2     :     0.002742  d :     0.050341
      dxz     :     0.014151
      dyz     :     0.005477
      dx2y2   :     0.018905
      dxy     :     0.009065
  3 O s       :     3.951929  s :     3.951929
      pz      :     1.417875  p :     4.423471
      px      :     1.396230
      py      :     1.609365
      dz2     :     0.002287  d :     0.010336
      dxz     :     0.000453
      dyz     :     0.001417
      dx2y2   :    -0.000735
      dxy     :     0.006914
      f0      :    -0.000029  f :    -0.000165
      f+1     :    -0.000152
      f-1     :     0.000127
      f+2     :     0.000052
      f-2     :    -0.000011
      f+3     :     0.000051
      f-3     :    -0.000203
  4 H s       :     0.627789  s :     0.627789
      pz      :     0.038595  p :     0.056525
      px      :    -0.018534
      py      :     0.036463
      dz2     :     0.002751  d :     0.050146
      dxz     :     0.014394
      dyz     :     0.005097
      dx2y2   :     0.021480
      dxy     :     0.006425
  5 H s       :     0.750994  s :     0.750994
      pz      :     0.020722  p :     0.111409
      px      :     0.043159
      py      :     0.047528
      dz2     :     0.006908  d :     0.017916
      dxz     :     0.001611
      dyz     :     0.003938
      dx2y2   :     0.003127
      dxy     :     0.002333
  6 O s       :     3.951928  s :     3.951928
      pz      :     1.417875  p :     4.423472
      px      :     1.396231
      py      :     1.609366
      dz2     :     0.002287  d :     0.010336
      dxz     :     0.000453
      dyz     :     0.001417
      dx2y2   :    -0.000735
      dxy     :     0.006914
      f0      :    -0.000029  f :    -0.000165
      f+1     :    -0.000152
      f-1     :     0.000127
      f+2     :     0.000052
      f-2     :    -0.000011
      f+3     :     0.000051
      f-3     :    -0.000203
  7 H s       :     0.750995  s :     0.750995
      pz      :     0.020722  p :     0.111409
      px      :     0.043159
      py      :     0.047528
      dz2     :     0.006908  d :     0.017916
      dxz     :     0.001611
      dyz     :     0.003938
      dx2y2   :     0.003127
      dxy     :     0.002333
  8 H s       :     0.627788  s :     0.627788
      pz      :     0.038595  p :     0.056525
      px      :    -0.018533
      py      :     0.036463
      dz2     :     0.002751  d :     0.050146
      dxz     :     0.014394
      dyz     :     0.005097
      dx2y2   :     0.021480
      dxy     :     0.006425
  9 O s       :     3.952443  s :     3.952443
      pz      :     1.418183  p :     4.423232
      px      :     1.468191
      py      :     1.536858
      dz2     :     0.002297  d :     0.010365
      dxz     :     0.001622
      dyz     :     0.000261
      dx2y2   :     0.002797
      dxy     :     0.003387
      f0      :    -0.000029  f :    -0.000163
      f+1     :     0.000054
      f-1     :    -0.000077
      f+2     :    -0.000044
      f-2     :     0.000085
      f+3     :     0.000051
      f-3     :    -0.000203
 10 H s       :     0.627283  s :     0.627283
      pz      :     0.038662  p :     0.056671
      px      :    -0.008639
      py      :     0.026648
      dz2     :     0.002742  d :     0.050341
      dxz     :     0.014151
      dyz     :     0.005477
      dx2y2   :     0.018905
      dxy     :     0.009065
 11 H s       :     0.750453  s :     0.750453
      pz      :     0.020812  p :     0.111160
      px      :     0.041356
      py      :     0.048992
      dz2     :     0.006873  d :     0.017886
      dxz     :     0.004803
      dyz     :     0.000751
      dx2y2   :     0.001638
      dxy     :     0.003820
 12 O s       :     3.952347  s :     3.952347
      pz      :     1.417818  p :     4.423706
      px      :     1.643938
      py      :     1.361950
      dz2     :     0.002307  d :     0.010443
      dxz     :     0.000744
      dyz     :     0.001150
      dx2y2   :     0.007247
      dxy     :    -0.001005
      f0      :    -0.000029  f :    -0.000163
      f+1     :     0.000060
      f-1     :    -0.000084
      f+2     :     0.000053
      f-2     :    -0.000012
      f+3     :     0.000052
      f-3     :    -0.000203
 13 H s       :     0.750673  s :     0.750673
      pz      :     0.020620  p :     0.111472
      px      :     0.051676
      py      :     0.039176
      dz2     :     0.006893  d :     0.017976
      dxz     :     0.001958
      dyz     :     0.003646
      dx2y2   :     0.003432
      dxy     :     0.002047
 14 H s       :     0.627247  s :     0.627247
      pz      :     0.038600  p :     0.056116
      px      :     0.053790
      py      :    -0.036275
      dz2     :     0.002734  d :     0.050163
      dxz     :     0.000779
      dyz     :     0.018791
      dx2y2   :     0.001531
      dxy     :     0.026328
 15 O s       :     3.952346  s :     3.952346
      pz      :     1.417819  p :     4.423707
      px      :     1.643939
      py      :     1.361950
      dz2     :     0.002307  d :     0.010443
      dxz     :     0.000744
      dyz     :     0.001150
      dx2y2   :     0.007247
      dxy     :    -0.001005
      f0      :    -0.000029  f :    -0.000163
      f+1     :     0.000060
      f-1     :    -0.000084
      f+2     :     0.000053
      f-2     :    -0.000012
      f+3     :     0.000052
      f-3     :    -0.000203
 16 H s       :     0.750673  s :     0.750673
      pz      :     0.020620  p :     0.111472
      px      :     0.051676
      py      :     0.039176
      dz2     :     0.006893  d :     0.017976
      dxz     :     0.001958
      dyz     :     0.003646
      dx2y2   :     0.003432
      dxy     :     0.002047
 17 H s       :     0.627247  s :     0.627247
      pz      :     0.038600  p :     0.056115
      px      :     0.053790
      py      :    -0.036275
      dz2     :     0.002734  d :     0.050163
      dxz     :     0.000779
      dyz     :     0.018791
      dx2y2   :     0.001531
      dxy     :     0.026328


                     *******************************
                     * LOEWDIN POPULATION ANALYSIS *
                     *******************************

----------------------
LOEWDIN ATOMIC CHARGES
----------------------
   0 O :    1.132018
   1 H :   -0.455639
   2 H :   -0.676371
   3 O :    1.131999
   4 H :   -0.676358
   5 H :   -0.455652
   6 O :    1.131999
   7 H :   -0.455653
   8 H :   -0.676357
   9 O :    1.132018
  10 H :   -0.676369
  11 H :   -0.455640
  12 O :    1.132006
  13 H :   -0.455665
  14 H :   -0.676338
  15 O :    1.132005
  16 H :   -0.455665
  17 H :   -0.676338

-------------------------------
LOEWDIN REDUCED ORBITAL CHARGES
-------------------------------
  0 O s       :     2.950011  s :     2.950011
      pz      :     1.258603  p :     3.793307
      px      :     1.259266
      py      :     1.275438
      dz2     :     0.024165  d :     0.105305
      dxz     :     0.006021
      dyz     :     0.023987
      dx2y2   :     0.016518
      dxy     :     0.034614
      f0      :     0.000858  f :     0.019359
      f+1     :     0.003327
      f-1     :     0.005311
      f+2     :     0.001964
      f-2     :     0.000962
      f+3     :     0.000738
      f-3     :     0.006199
  1 H s       :     0.582479  s :     0.582479
      pz      :     0.222292  p :     0.533059
      px      :     0.138313
      py      :     0.172454
      dz2     :     0.105939  d :     0.340101
      dxz     :     0.076529
      dyz     :     0.088634
      dx2y2   :     0.029330
      dxy     :     0.039669
  2 H s       :     0.547662  s :     0.547662
      pz      :     0.139930  p :     0.626039
      px      :     0.293428
      py      :     0.192681
      dz2     :     0.053759  d :     0.502670
      dxz     :     0.106527
      dyz     :     0.049062
      dx2y2   :     0.147542
      dxy     :     0.145781
  3 O s       :     2.950009  s :     2.950009
      pz      :     1.258604  p :     3.793329
      px      :     1.237435
      py      :     1.297290
      dz2     :     0.024165  d :     0.105304
      dxz     :     0.015967
      dyz     :     0.014042
      dx2y2   :     0.025192
      dxy     :     0.025938
      f0      :     0.000859  f :     0.019359
      f+1     :     0.003683
      f-1     :     0.004954
      f+2     :     0.000501
      f-2     :     0.002424
      f+3     :     0.000738
      f-3     :     0.006199
  4 H s       :     0.547665  s :     0.547665
      pz      :     0.139926  p :     0.626040
      px      :     0.295075
      py      :     0.191039
      dz2     :     0.053762  d :     0.502653
      dxz     :     0.122626
      dyz     :     0.032952
      dx2y2   :     0.142968
      dxy     :     0.150345
  5 H s       :     0.582483  s :     0.582483
      pz      :     0.222299  p :     0.533074
      px      :     0.149241
      py      :     0.161534
      dz2     :     0.105938  d :     0.340095
      dxz     :     0.084327
      dyz     :     0.080832
      dx2y2   :     0.038725
      dxy     :     0.030272
  6 O s       :     2.950010  s :     2.950010
      pz      :     1.258605  p :     3.793330
      px      :     1.237435
      py      :     1.297290
      dz2     :     0.024165  d :     0.105303
      dxz     :     0.015967
      dyz     :     0.014042
      dx2y2   :     0.025192
      dxy     :     0.025938
      f0      :     0.000859  f :     0.019359
      f+1     :     0.003683
      f-1     :     0.004954
      f+2     :     0.000501
      f-2     :     0.002424
      f+3     :     0.000738
      f-3     :     0.006199
  7 H s       :     0.582484  s :     0.582484
      pz      :     0.222299  p :     0.533074
      px      :     0.149241
      py      :     0.161534
      dz2     :     0.105938  d :     0.340095
      dxz     :     0.084327
      dyz     :     0.080833
      dx2y2   :     0.038725
      dxy     :     0.030272
  8 H s       :     0.547665  s :     0.547665
      pz      :     0.139926  p :     0.626039
      px      :     0.295075
      py      :     0.191038
      dz2     :     0.053762  d :     0.502653
      dxz     :     0.122626
      dyz     :     0.032952
      dx2y2   :     0.142968
      dxy     :     0.150345
  9 O s       :     2.950011  s :     2.950011
      pz      :     1.258603  p :     3.793308
      px      :     1.259266
      py      :     1.275439
      dz2     :     0.024165  d :     0.105305
      dxz     :     0.006021
      dyz     :     0.023987
      dx2y2   :     0.016518
      dxy     :     0.034614
      f0      :     0.000858  f :     0.019359
      f+1     :     0.003327
      f-1     :     0.005311
      f+2     :     0.001964
      f-2     :     0.000962
      f+3     :     0.000738
      f-3     :     0.006199
 10 H s       :     0.547661  s :     0.547661
      pz      :     0.139930  p :     0.626038
      px      :     0.293427
      py      :     0.192681
      dz2     :     0.053759  d :     0.502670
      dxz     :     0.106527
      dyz     :     0.049062
      dx2y2   :     0.147541
      dxy     :     0.145781
 11 H s       :     0.582480  s :     0.582480
      pz      :     0.222292  p :     0.533060
      px      :     0.138314
      py      :     0.172454
      dz2     :     0.105939  d :     0.340101
      dxz     :     0.076529
      dyz     :     0.088634
      dx2y2   :     0.029330
      dxy     :     0.039669
 12 O s       :     2.950009  s :     2.950009
      pz      :     1.258601  p :     3.793324
      px      :     1.305374
      py      :     1.229350
      dz2     :     0.024164  d :     0.105302
      dxz     :     0.023024
      dyz     :     0.006984
      dx2y2   :     0.034987
      dxy     :     0.016143
      f0      :     0.000858  f :     0.019358
      f+1     :     0.005946
      f-1     :     0.002692
      f+2     :     0.001923
      f-2     :     0.001002
      f+3     :     0.000738
      f-3     :     0.006198
 13 H s       :     0.582482  s :     0.582482
      pz      :     0.222292  p :     0.533084
      px      :     0.178624
      py      :     0.132168
      dz2     :     0.105935  d :     0.340100
      dxz     :     0.086887
      dyz     :     0.078279
      dx2y2   :     0.035444
      dxy     :     0.033555
 14 H s       :     0.547658  s :     0.547658
      pz      :     0.139932  p :     0.626023
      px      :     0.140647
      py      :     0.345445
      dz2     :     0.053762  d :     0.502657
      dxz     :     0.004219
      dyz     :     0.151359
      dx2y2   :     0.149471
      dxy     :     0.143846
 15 O s       :     2.950010  s :     2.950010
      pz      :     1.258601  p :     3.793325
      px      :     1.305374
      py      :     1.229350
      dz2     :     0.024164  d :     0.105302
      dxz     :     0.023024
      dyz     :     0.006984
      dx2y2   :     0.034987
      dxy     :     0.016143
      f0      :     0.000858  f :     0.019358
      f+1     :     0.005946
      f-1     :     0.002692
      f+2     :     0.001923
      f-2     :     0.001002
      f+3     :     0.000738
      f-3     :     0.006198
 16 H s       :     0.582481  s :     0.582481
      pz      :     0.222292  p :     0.533083
      px      :     0.178624
      py      :     0.132168
      dz2     :     0.105935  d :     0.340100
      dxz     :     0.086887
      dyz     :     0.078279
      dx2y2   :     0.035444
      dxy     :     0.033555
 17 H s       :     0.547657  s :     0.547657
      pz      :     0.139931  p :     0.626023
      px      :     0.140646
      py      :     0.345445
      dz2     :     0.053762  d :     0.502657
      dxz     :     0.004219
      dyz     :     0.151359
      dx2y2   :     0.149471
      dxy     :     0.143846


                      *****************************
                      * MAYER POPULATION ANALYSIS *
                      *****************************

  NA   - Mulliken gross atomic population
  ZA   - Total nuclear charge
  QA   - Mulliken gross atomic charge
  VA   - Mayer's total valence
  BVA  - Mayer's bonded valence
  FA   - Mayer's free valence

  ATOM       NA         ZA         QA         VA         BVA        FA
  0 O      8.3859     8.0000    -0.3859     1.8948     1.8948     0.0000
  1 H      0.8795     1.0000     0.1205     1.1116     1.1116     0.0000
  2 H      0.7343     1.0000     0.2657     0.9766     0.9766     0.0000
  3 O      8.3856     8.0000    -0.3856     1.8944     1.8944    -0.0000
  4 H      0.7345     1.0000     0.2655     0.9767     0.9767    -0.0000
  5 H      0.8803     1.0000     0.1197     1.1125     1.1125    -0.0000
  6 O      8.3856     8.0000    -0.3856     1.8944     1.8944    -0.0000
  7 H      0.8803     1.0000     0.1197     1.1125     1.1125     0.0000
  8 H      0.7345     1.0000     0.2655     0.9767     0.9767    -0.0000
  9 O      8.3859     8.0000    -0.3859     1.8948     1.8948    -0.0000
 10 H      0.7343     1.0000     0.2657     0.9766     0.9766     0.0000
 11 H      0.8795     1.0000     0.1205     1.1116     1.1116    -0.0000
 12 O      8.3863     8.0000    -0.3863     1.8944     1.8944    -0.0000
 13 H      0.8801     1.0000     0.1199     1.1125     1.1125    -0.0000
 14 H      0.7335     1.0000     0.2665     0.9754     0.9754    -0.0000
 15 O      8.3863     8.0000    -0.3863     1.8944     1.8944     0.0000
 16 H      0.8801     1.0000     0.1199     1.1125     1.1125    -0.0000
 17 H      0.7335     1.0000     0.2665     0.9754     0.9754    -0.0000

  Mayer bond orders larger than 0.100000
B(  0-O ,  1-H ) :   1.0646 B(  0-O ,  2-H ) :   0.8573 B(  3-O ,  4-H ) :   0.8568 
B(  3-O ,  5-H ) :   1.0654 B(  6-O ,  7-H ) :   1.0654 B(  6-O ,  8-H ) :   0.8568 
B(  9-O , 10-H ) :   0.8573 B(  9-O , 11-H ) :   1.0646 B( 12-O , 13-H ) :   1.0653 
B( 12-O , 14-H ) :   0.8565 B( 15-O , 16-H ) :   1.0653 B( 15-O , 17-H ) :   0.8565 


-------
TIMINGS
-------

Total SCF time: 0 days 0 hours 0 min 7 sec 

Total time                  ....       7.148 sec
Sum of individual times     ....       6.689 sec  ( 93.6%)

Fock matrix formation       ....       5.209 sec  ( 72.9%)
  Split-RI-J                ....       1.868 sec  ( 35.9% of F)
  XC integration            ....       3.158 sec  ( 60.6% of F)
    Basis function eval.    ....       0.290 sec  (  9.2% of XC)
    Density eval.           ....       0.752 sec  ( 23.8% of XC)
    XC-Functional eval.     ....       0.062 sec  (  2.0% of XC)
    XC-Potential eval.      ....       1.507 sec  ( 47.7% of XC)
Diagonalization             ....       0.367 sec  (  5.1%)
Density matrix formation    ....       0.035 sec  (  0.5%)
Population analysis         ....       0.049 sec  (  0.7%)
Initial guess               ....       0.302 sec  (  4.2%)
Orbital Transformation      ....       0.000 sec  (  0.0%)
Orbital Orthonormalization  ....       0.000 sec  (  0.0%)
DIIS solution               ....       0.164 sec  (  2.3%)
SOSCF solution              ....       0.263 sec  (  3.7%)
Grid generation             ....       0.301 sec  (  4.2%)


-------------------------------------------------------------------------------
                          DFT DISPERSION CORRECTION                            
                                                                               
                              DFTD3 V3.1  Rev 1                                
                          USING Becke-Johnson damping                          
-------------------------------------------------------------------------------
The TPSS functional is recognized
Active option DFTDOPT                   ...         4   

molecular C6(AA) [au] = 1602.214577 


            DFT-D V3
 parameters
 s6 scaling factor         :     1.0000 
 a1 scaling factor         :     0.4535 
 s8 scaling factor         :     1.9435 
 a2 scaling factor         :     4.4752 
 ad hoc parameters k1-k3   :    16.0000     1.3333    -4.0000 

 Edisp/kcal,au: -5.440030341272  -0.008669239248 
 E6   /kcal   :  -3.140148242 
 E8   /kcal   :  -2.299882099 
 % E8         :  42.277008667 

-------------------------   ----------------
Dispersion correction           -0.008669239
-------------------------   ----------------


-------------------------   --------------------
FINAL SINGLE POINT ENERGY      -458.878368448438
-------------------------   --------------------



           ************************************************************
           *        Program running with 24 parallel MPI-processes    *
           *              working on a common directory               *
           ************************************************************
------------------------------------------------------------------------------
                         ORCA SCF GRADIENT CALCULATION
------------------------------------------------------------------------------

Gradient of the Kohn-Sham DFT energy:
Kohn-Sham wavefunction type      ... RKS
Hartree-Fock exchange scaling    ...    0.000
[...]
      1      -0.013992  -0.012152  -0.013861   0.014796   0.009934  -0.012390
      2      -0.002621  -0.001966  -0.003041   0.003241   0.001700  -0.002593
      3       0.000303   0.004782  -0.008908   0.013304   0.000020  -0.009568
      4      -0.021267  -0.023450  -0.018244   0.019947   0.019719  -0.019638
      5      -0.021118  -0.024970  -0.018855   0.022482   0.022016  -0.022431
      6       0.342921   0.324267   0.358430  -0.389031  -0.274892   0.333283
      7       0.212214   0.195881   0.233969  -0.255998  -0.170328   0.216347
      8       0.055088   0.053127   0.063201  -0.072468  -0.049241   0.063441
      9       0.022905  -0.030510   0.006966   0.027338  -0.012457   0.020659
     10      -0.012124   0.017651  -0.004080  -0.016160   0.006789  -0.011878
     11      -0.003046   0.004109  -0.000355  -0.003579   0.002182  -0.003028
     12      -0.355924   0.491814  -0.110618  -0.451327   0.208394  -0.346039
     13       0.197680  -0.265072   0.071137   0.242380  -0.102405   0.180672
     14       0.063311  -0.090763   0.019098   0.087045  -0.040658   0.068668
     15       0.018965  -0.027011   0.006422   0.026719  -0.011703   0.021106
     16       0.010333  -0.008764   0.012819   0.006760   0.006762  -0.000168
     17      -0.021501   0.029130  -0.013456  -0.030089   0.007847  -0.021326
     18      -0.022904  -0.030511   0.006964  -0.027311   0.012502   0.020668
     19       0.012121   0.017649  -0.004079   0.016144  -0.006810  -0.011882
     20       0.003048   0.004112  -0.000356   0.003578  -0.002187  -0.003030
     21      -0.018962  -0.027009   0.006418  -0.026689   0.011751   0.021117
     22      -0.010332  -0.008768   0.012822  -0.006756  -0.006753  -0.000146
     23       0.021496   0.029129  -0.013453   0.030063  -0.007898  -0.021346
     24       0.355914   0.491824  -0.110590   0.450967  -0.209022  -0.346197
     25      -0.197639  -0.265036   0.071111  -0.242154   0.102716   0.180733
     26      -0.063341  -0.090806   0.019099  -0.087011   0.040799   0.068727
     27       0.021591  -0.020434  -0.023256  -0.024587  -0.017555  -0.020822
     28       0.013994  -0.012157  -0.013859  -0.014809  -0.009953  -0.012364
     29       0.002623  -0.001967  -0.003042  -0.003244  -0.001705  -0.002588
     30      -0.342915   0.324347   0.358322   0.389326   0.275345   0.332531
     31      -0.212242   0.195961   0.233930   0.256223   0.170647   0.215901
     32      -0.055113   0.053160   0.063211   0.072554   0.049342   0.063326
     33      -0.000303   0.004791  -0.008904  -0.013311  -0.000026  -0.009558
     34       0.021269  -0.023452  -0.018237  -0.019965  -0.019742  -0.019596
     35       0.021118  -0.024976  -0.018845  -0.022508  -0.022044  -0.022387
     36      -0.000832  -0.000087  -0.000188  -0.000544   0.000195   0.000074
     37       0.025146   0.010590  -0.033474  -0.003573   0.035027   0.025222
     38      -0.003427  -0.001829   0.004184   0.000001  -0.004639  -0.003357
     39      -0.017855   0.002307   0.024607   0.009831  -0.017395  -0.012393
     40       0.010000   0.010759  -0.014335   0.002539   0.024360   0.019548
     41      -0.020356  -0.003307   0.030490   0.007895  -0.031795  -0.024461
     42       0.004793   0.013705  -0.008251   0.006207   0.019798   0.015634
     43      -0.394151  -0.164715   0.530717   0.054566  -0.566492  -0.411924
     44       0.067557   0.031799  -0.092986  -0.008572   0.105611   0.078600
     45       0.000835  -0.000088  -0.000186   0.000551  -0.000184   0.000069
     46      -0.025142   0.010581  -0.033469   0.003596  -0.034996   0.025268
     47       0.003430  -0.001831   0.004187  -0.000002   0.004642  -0.003369
     48       0.017855   0.002321   0.024603  -0.009850   0.017364  -0.012389
     49      -0.010000   0.010758  -0.014332  -0.002544  -0.024356   0.019603
     50       0.020343  -0.003275   0.030472  -0.007938   0.031716  -0.024459
     51      -0.004879   0.013747  -0.008336  -0.006472  -0.020154   0.015992
     52       0.394085  -0.164571   0.530649  -0.054917   0.566009  -0.412688
     53      -0.067584   0.031795  -0.093021   0.008623  -0.105589   0.078798
                 48         49         50         51         52         53    
      0      -0.001454   0.001610  -0.001587   0.001897   0.000417  -0.001063
      1       0.016085  -0.018611   0.012794  -0.016844  -0.008466   0.011640
      2       0.023002  -0.026588   0.018507  -0.024197  -0.011904   0.016436
      3       0.050832  -0.058632   0.039866  -0.052239  -0.026222   0.035757
      4      -0.247032   0.285504  -0.199456   0.260331   0.127404  -0.176112
      5      -0.374588   0.432698  -0.302148   0.394390   0.192988  -0.266738
      6      -0.025720   0.030333  -0.015029   0.022617   0.017436  -0.019015
      7      -0.007822   0.009311  -0.001730   0.004166   0.006976  -0.006236
      8       0.009208  -0.010033   0.009506  -0.010749  -0.002240   0.004688
      9      -0.013081  -0.013176  -0.013728  -0.015019   0.003263  -0.007221
     10      -0.009546  -0.009841  -0.009565  -0.010579   0.002958  -0.005529
     11       0.023393   0.023859   0.023941   0.026330  -0.006436   0.013016
     12       0.017059   0.014073   0.023282   0.023613   0.002176   0.007180
     13      -0.017918  -0.016751  -0.020656  -0.021980   0.001862  -0.008446
     14       0.009839   0.011191   0.006842   0.008132  -0.004959   0.005134
     15       0.188991   0.193440   0.192523   0.212408  -0.053247   0.105801
     16       0.170144   0.173422   0.174000   0.191186  -0.046675   0.094410
     17      -0.381053  -0.389048  -0.388391  -0.427502   0.105808  -0.211808
     18      -0.013116   0.013177   0.013644  -0.015023   0.004295   0.006731
     19      -0.009573   0.009845   0.009508  -0.010587   0.003740   0.005088
     20       0.023457  -0.023861  -0.023801   0.026341  -0.008287  -0.012049
     21       0.189477  -0.193428  -0.191355   0.212469  -0.068254  -0.097784
     22       0.170647  -0.173471  -0.173014   0.191306  -0.060106  -0.087406
     23      -0.382095   0.389085   0.386095  -0.427689   0.135899   0.195912
     24       0.017138  -0.014057  -0.023236   0.023614   0.001036  -0.007430
     25      -0.017983   0.016742   0.020572  -0.021985   0.003110   0.008137
     26       0.009849  -0.011197  -0.006762   0.008136  -0.005646  -0.004423
     27      -0.001460  -0.001607   0.001571   0.001900   0.000576   0.001008
     28       0.016125   0.018573  -0.012643  -0.016860  -0.010095  -0.010418
     29       0.023062   0.026537  -0.018293  -0.024221  -0.014208  -0.014721
     30      -0.025771  -0.030272   0.014773   0.022640   0.020006   0.016514
     31      -0.007824  -0.009294   0.001647   0.004174   0.007786   0.005237
     32       0.009243   0.010013  -0.009432  -0.010759  -0.002945  -0.004370
     33       0.050989   0.058554  -0.039425  -0.052322  -0.031248  -0.031998
     34      -0.247663  -0.284933   0.197149   0.260581   0.152097   0.157749
     35      -0.375565  -0.431856   0.298668   0.394789   0.230401   0.238933
     36       0.009282   0.002457  -0.012467  -0.002338   0.022032   0.017605
     37      -0.003995  -0.001541   0.005400   0.001630  -0.009508  -0.007535
     38       0.014677   0.003972  -0.019748  -0.003862   0.034696   0.027633
     39      -0.152138  -0.040481   0.204667   0.039146  -0.358778  -0.285702
     40       0.046965   0.011589  -0.063522  -0.011194   0.111964   0.089120
     41      -0.238890  -0.063158   0.321376   0.061098  -0.563568  -0.448690
     42       0.004238   0.000345  -0.006014  -0.000163   0.010348   0.007883
     43       0.015274   0.011672  -0.020067  -0.013114   0.036743   0.028723
     44       0.006151  -0.001674  -0.008263   0.002081   0.012245   0.009550
     45       0.009162  -0.002435   0.012375  -0.002312   0.019484  -0.020496
     46      -0.003943   0.001533  -0.005361   0.001618  -0.008415   0.008782
     47       0.014489  -0.003939   0.019613  -0.003820   0.030695  -0.032193
     48      -0.150209   0.040152  -0.203293   0.038710  -0.317441   0.332897
     49       0.046351  -0.011483   0.063070  -0.011052   0.099027  -0.103803
     50      -0.235847   0.062635  -0.319190   0.060410  -0.498619   0.522784
     51       0.004413  -0.000446   0.006271  -0.000122   0.009526  -0.009569
     52       0.015061  -0.011642   0.019913  -0.013069   0.032563  -0.033545
     53       0.006093   0.001683   0.008233   0.002098   0.010881  -0.011177


-----------
IR SPECTRUM  
-----------

 Mode    freq (cm**-1)   T**2         TX         TY         TZ
-------------------------------------------------------------------
   6:        17.38    1.880074  ( -0.479123   1.284634  -0.015181)
   7:        31.37    0.864323  ( -0.918885  -0.139443   0.023009)
   8:        50.16    0.000545  ( -0.014782  -0.000868   0.018036)
   9:        52.86    0.005713  ( -0.051139   0.002990   0.055575)
  10:        54.53    0.007276  (  0.052875   0.001352  -0.066925)
  11:        94.99    5.673967  ( -0.039217   0.227203   2.370824)
  12:       173.58    0.060797  (  0.116382  -0.023321  -0.216121)
  13:       189.95   46.949199  ( -0.814594   0.151372   6.801671)
  14:       214.94    0.014117  (  0.007027   0.116982  -0.019557)
  15:       224.74    0.005155  (  0.018769  -0.066288   0.020224)
  16:       240.48   39.665955  (  2.315620   5.856125   0.098286)
  17:       243.72   30.550142  (  5.512176  -0.364582  -0.182042)
  18:       280.76  344.026539  ( 15.746491  -9.798155   0.265931)
  19:       292.94  320.466714  ( -9.143185 -15.390309  -0.085278)
  20:       322.25    0.002337  ( -0.047950  -0.005900   0.001804)
  21:       334.87    0.000175  (  0.012861  -0.002767  -0.001450)
  22:       337.89    0.000221  (  0.014710  -0.002125  -0.000645)
  23:       372.26    4.663031  (  0.139193   0.072098   2.153708)
  24:       446.37    0.001323  (  0.034186   0.010562  -0.006545)
  25:       470.71   28.271059  (  3.817649   3.694299  -0.220846)
  26:       471.21   22.448405  ( -3.669250   2.995230  -0.116652)
  27:       500.58   29.954391  (  0.195240   0.307501   5.460926)
  28:       504.05    0.424961  ( -0.003997   0.003000   0.651871)
  29:       506.38    0.157801  (  0.034500  -0.011170  -0.395583)
  30:       827.74  228.037602  (  0.050556  -0.611649 -15.088437)
  31:       855.97    0.326862  ( -0.170467   0.040859  -0.544182)
  32:       858.38    0.004696  ( -0.020078   0.001956  -0.065487)
  33:       962.37  109.573220  ( -8.590570   5.979180  -0.157292)
  34:       969.91  102.510959  (  5.653047   8.396486   0.230316)
  35:      1046.30    0.002666  ( -0.049867   0.005040   0.012416)
  36:      1625.72   74.642301  (  0.421607   0.318452   8.623406)
  37:      1643.26    0.002068  ( -0.016410   0.022887  -0.035707)
  38:      1643.40    0.001987  (  0.033449  -0.010506   0.027532)
  39:      1682.90   88.041669  (  6.494930   6.768098  -0.224520)
  40:      1683.58   98.379563  (  6.585268  -7.416064  -0.125680)
  41:      1705.61    0.002528  (  0.016975  -0.046342  -0.009608)
  42:      3020.09    0.000007  ( -0.002285  -0.001409   0.000418)
  43:      3127.63  3459.160064  ( 56.578994 -16.060018  -0.230781)
  44:      3131.01  3548.622419  ( 16.480081  57.244710   0.269377)
  45:      3204.20    0.000081  ( -0.004859   0.003144   0.006911)
  46:      3207.32    0.000292  ( -0.010892   0.007278   0.010952)
  47:      3227.76  181.294953  (  0.120577  -0.841038  13.437748)
  48:      3767.06  115.703625  (  1.051059  -1.584711 -10.587143)
  49:      3768.01    0.000054  ( -0.000194   0.007064   0.002008)
  50:      3768.66    0.001529  (  0.015121  -0.030560  -0.019154)
  51:      3769.83   73.784187  (  7.599608   3.994704   0.269239)
  52:      3771.73   76.376528  ( -3.960853   7.475354  -2.192547)
  53:      3771.90    0.362625  (  0.271248  -0.510681   0.168091)

The first frequency considered to be a vibration is 6
The total number of vibrations considered is 48


--------------------------
THERMOCHEMISTRY AT 298.15K
--------------------------

Temperature         ... 298.15 K
Pressure            ... 1.00 atm
Total Mass          ... 108.09 AMU

Throughout the following assumptions are being made:
  (1) The electronic state is orbitally nondegenerate
  (2) There are no thermally accessible electronically excited states
  (3) Hindered rotations indicated by low frequency modes are not
      treated as such but are treated as vibrations and this may
      cause some error
  (4) All equations used are the standard statistical mechanics
      equations for an ideal gas
  (5) All vibrations are strictly harmonic

freq.      17.38  E(vib)   ...       0.57 
freq.      31.37  E(vib)   ...       0.55 
freq.      50.16  E(vib)   ...       0.52 
freq.      52.86  E(vib)   ...       0.52 
freq.      54.53  E(vib)   ...       0.52 
freq.      94.99  E(vib)   ...       0.47 
freq.     173.58  E(vib)   ...       0.38 
freq.     189.95  E(vib)   ...       0.36 
freq.     214.94  E(vib)   ...       0.34 
freq.     224.74  E(vib)   ...       0.33 
freq.     240.48  E(vib)   ...       0.31 
freq.     243.72  E(vib)   ...       0.31 
freq.     280.76  E(vib)   ...       0.28 
freq.     292.94  E(vib)   ...       0.27 
freq.     322.25  E(vib)   ...       0.25 
freq.     334.87  E(vib)   ...       0.24 
freq.     337.89  E(vib)   ...       0.24 
freq.     372.26  E(vib)   ...       0.21 
freq.     446.37  E(vib)   ...       0.17 
freq.     470.71  E(vib)   ...       0.15 
freq.     471.21  E(vib)   ...       0.15 
freq.     500.58  E(vib)   ...       0.14 
freq.     504.05  E(vib)   ...       0.14 
freq.     506.38  E(vib)   ...       0.14 
freq.     827.74  E(vib)   ...       0.04 
freq.     855.97  E(vib)   ...       0.04 
freq.     858.38  E(vib)   ...       0.04 
freq.     962.37  E(vib)   ...       0.03 
freq.     969.91  E(vib)   ...       0.03 
freq.    1046.30  E(vib)   ...       0.02 
freq.    1625.72  E(vib)   ...       0.00 
freq.    1643.26  E(vib)   ...       0.00 
freq.    1643.40  E(vib)   ...       0.00 
freq.    1682.90  E(vib)   ...       0.00 
freq.    1683.58  E(vib)   ...       0.00 
freq.    1705.61  E(vib)   ...       0.00 
freq.    3020.09  E(vib)   ...       0.00 
freq.    3127.63  E(vib)   ...       0.00 
freq.    3131.01  E(vib)   ...       0.00 
freq.    3204.20  E(vib)   ...       0.00 
freq.    3207.32  E(vib)   ...       0.00 
freq.    3227.76  E(vib)   ...       0.00 
freq.    3767.06  E(vib)   ...       0.00 
freq.    3768.01  E(vib)   ...       0.00 
freq.    3768.66  E(vib)   ...       0.00 
freq.    3769.83  E(vib)   ...       0.00 
freq.    3771.73  E(vib)   ...       0.00 
freq.    3771.90  E(vib)   ...       0.00 

------------
INNER ENERGY
------------

The inner energy is: U= E(el) + E(ZPE) + E(vib) + E(rot) + E(trans)
    E(el)   - is the total energy from the electronic structure calculation
              = E(kin-el) + E(nuc-el) + E(el-el) + E(nuc-nuc)
    E(ZPE)  - the the zero temperature vibrational energy from the frequency calculation
    E(vib)  - the the finite temperature correction to E(ZPE) due to population
              of excited vibrational states
    E(rot)  - is the rotational thermal energy
    E(trans)- is the translational thermal energy

Summary of contributions to the inner energy U:
Electronic energy                ...   -458.88073931 Eh
Zero point energy                ...      0.14459379 Eh      90.73 kcal/mol
Thermal vibrational correction   ...      0.01235806 Eh       7.75 kcal/mol
Thermal rotational correction    ...      0.00141627 Eh       0.89 kcal/mol
Thermal translational correction ...      0.00141627 Eh       0.89 kcal/mol
-----------------------------------------------------------------------
Total thermal energy                   -458.72095493 Eh


Summary of corrections to the electronic energy:
(perhaps to be used in another calculation)
Total thermal correction                  0.01519060 Eh       9.53 kcal/mol
Non-thermal (ZPE) correction              0.14459379 Eh      90.73 kcal/mol
-----------------------------------------------------------------------
Total correction                          0.15978439 Eh     100.27 kcal/mol


--------
ENTHALPY
--------

The enthalpy is H = U + kB*T
                kB is Boltzmann's constant
Total free energy                 ...   -458.72095493 Eh 
Thermal Enthalpy correction       ...      0.00094421 Eh       0.59 kcal/mol
-----------------------------------------------------------------------
Total Enthalpy                    ...   -458.72001072 Eh


Note: Only C1 symmetry has been detected, increase convergence thresholds 
      if your molecule has a higher symmetry. Symmetry factor of 1.0 is   
      used for the rotational entropy correction. 
 

Note: Rotational entropy computed according to Herzberg 
Infrared and Raman Spectra, Chapter V,1, Van Nostrand Reinhold, 1945 
Point Group:  C1, Symmetry Number:   1  
Rotational constants in cm-1:     0.043538     0.042371     0.021827 

Vibrational entropy computed according to the QRRHO of S. Grimme
Chem.Eur.J. 2012 18 9955


-------
ENTROPY
-------

The entropy contributions are T*S = T*(S(el)+S(vib)+S(rot)+S(trans))
     S(el)   - electronic entropy
     S(vib)  - vibrational entropy
     S(rot)  - rotational entropy
     S(trans)- translational entropy
The entropies will be listed as mutliplied by the temperature to get
units of energy

Electronic entropy                ...      0.00000000 Eh      0.00 kcal/mol
Vibrational entropy               ...      0.02261954 Eh     14.19 kcal/mol
Rotational entropy                ...      0.01428836 Eh      8.97 kcal/mol
Translational entropy             ...      0.01898142 Eh     11.91 kcal/mol
-----------------------------------------------------------------------
Final entropy term                ...      0.05588932 Eh     35.07 kcal/mol

In case the symmetry of your molecule has not been determined correctly
or in case you have a reason to use a different symmetry number we print 
out the resulting rotational entropy values for sn=1,12 :
 --------------------------------------------------------
|  sn= 1 | S(rot)=       0.01428836 Eh      8.97 kcal/mol|
|  sn= 2 | S(rot)=       0.01363391 Eh      8.56 kcal/mol|
|  sn= 3 | S(rot)=       0.01325107 Eh      8.32 kcal/mol|
|  sn= 4 | S(rot)=       0.01297945 Eh      8.14 kcal/mol|
|  sn= 5 | S(rot)=       0.01276876 Eh      8.01 kcal/mol|
|  sn= 6 | S(rot)=       0.01259662 Eh      7.90 kcal/mol|
|  sn= 7 | S(rot)=       0.01245107 Eh      7.81 kcal/mol|
|  sn= 8 | S(rot)=       0.01232499 Eh      7.73 kcal/mol|
|  sn= 9 | S(rot)=       0.01221379 Eh      7.66 kcal/mol|
|  sn=10 | S(rot)=       0.01211431 Eh      7.60 kcal/mol|
|  sn=11 | S(rot)=       0.01202432 Eh      7.55 kcal/mol|
|  sn=12 | S(rot)=       0.01194216 Eh      7.49 kcal/mol|
 --------------------------------------------------------


-------------------
GIBBS FREE ENERGY
-------------------

The Gibbs free energy is G = H - T*S

Total enthalpy                    ...   -458.72001072 Eh 
Total entropy correction          ...     -0.05588932 Eh    -35.07 kcal/mol
-----------------------------------------------------------------------
Final Gibbs free energy         ...   -458.77590004 Eh

For completeness - the Gibbs free energy minus the electronic energy
G-E(el)                           ...      0.10483928 Eh     65.79 kcal/mol


Total Time for Numerical Frequencies  :       506.504 sec

Timings for individual modules:

Sum of individual times         ...      113.201 sec (=   1.887 min)
GTO integral calculation        ...       10.390 sec (=   0.173 min)   9.2 %
SCF iterations                  ...       64.805 sec (=   1.080 min)  57.2 %
SCF Gradient evaluation         ...       36.784 sec (=   0.613 min)  32.5 %
Geometry relaxation             ...        1.221 sec (=   0.020 min)   1.1 %
                             ****ORCA TERMINATED NORMALLY****
TOTAL RUN TIME: 0 days 0 hours 18 minutes 20 seconds 297 msec
