
                                 *****************
                                 * O   R   C   A *
                                 *****************

           --- An Ab Initio, DFT and Semiempirical electronic structure package ---

                  #######################################################
                  #                        -***-                        #
                  #          Department of theory and spectroscopy      #
                  #               Directorship: Frank Neese             #
                  #        Max Planck Institute fuer Kohlenforschung    #
                  #                Kaiser Wilhelm Platz 1               #
                  #                 D-45470 Muelheim/Ruhr               #
                  #                      Germany                        #
                  #                                                     #
                  #                  All rights reserved                #
                  #                        -***-                        #
                  #######################################################


                         Program Version 4.2.0 -  RELEASE  -


 With contributions from (in alphabetic order):
   Daniel Aravena         : Magnetic Suceptibility
   Michael Atanasov       : Ab Initio Ligand Field Theory (pilot matlab implementation)
   Alexander A. Auer      : GIAO ZORA, VPT2
   Ute Becker             : Parallelization
   Giovanni Bistoni       : ED, misc. LED, open-shell LED, HFLED
   Martin Brehm           : Molecular dynamics
   Dmytro Bykov           : SCF Hessian
   Vijay G. Chilkuri      : MRCI spin determinant printing, contributions to CSF-ICE
   Dipayan Datta          : RHF DLPNO-CCSD density
   Achintya Kumar Dutta   : EOM-CC, STEOM-CC
   Dmitry Ganyushin       : Spin-Orbit,Spin-Spin,Magnetic field MRCI
   Miquel Garcia          : C-PCM Hessian, Gaussian charge scheme
   Yang Guo               : DLPNO-NEVPT2, CIM, IAO-localization
   Andreas Hansen         : Spin unrestricted coupled pair/coupled cluster methods
   Benjamin Helmich-Paris : CASSCF linear response (MC-RPA)
   Lee Huntington         : MR-EOM, pCC
   Robert Izsak           : Overlap fitted RIJCOSX, COSX-SCS-MP3, EOM
   Christian Kollmar      : KDIIS, OOCD, Brueckner-CCSD(T), CCSD density
   Simone Kossmann        : Meta GGA functionals, TD-DFT gradient, OOMP2, MP2 Hessian
   Martin Krupicka        : AUTO-CI
   Lucas Lang             : DCDCAS
   Dagmar Lenk            : GEPOL surface, SMD
   Dimitrios Liakos       : Extrapolation schemes; Compound Job, initial MDCI parallelization
   Dimitrios Manganas     : Further ROCIS development; embedding schemes
   Dimitrios Pantazis     : SARC Basis sets
   Taras Petrenko         : DFT Hessian,TD-DFT gradient, ASA, ECA, R-Raman, ABS, FL, XAS/XES, NRVS
   Peter Pinski           : DLPNO-MP2, DLPNO-MP2 Gradient
   Christoph Reimann      : Effective Core Potentials
   Marius Retegan         : Local ZFS, SOC
   Christoph Riplinger    : Optimizer, TS searches, QM/MM, DLPNO-CCSD(T), (RO)-DLPNO pert. Triples
   Tobias Risthaus        : Range-separated hybrids, TD-DFT gradient, RPA, STAB
   Michael Roemelt        : Original ROCIS implementation
   Masaaki Saitow         : Open-shell DLPNO-CCSD energy and density
   Barbara Sandhoefer     : DKH picture change effects
   Avijit Sen             : IP-ROCIS
   Kantharuban Sivalingam : CASSCF convergence, NEVPT2, FIC-MRCI
   Bernardo de Souza      : ESD, SOC TD-DFT
   Georgi Stoychev        : AutoAux, RI-MP2 NMR
   Willem Van den Heuvel  : Paramagnetic NMR
   Boris Wezisla          : Elementary symmetry handling
   Frank Wennmohs         : Technical directorship


 We gratefully acknowledge several colleagues who have allowed us to
 interface, adapt or use parts of their codes:
   Stefan Grimme, W. Hujo, H. Kruse,             : VdW corrections, initial TS optimization,
                  C. Bannwarth                     DFT functionals, gCP, sTDA/sTD-DF
   Ed Valeev, F. Pavosevic, A. Kumar             : LibInt (2-el integral package), F12 methods
   Garnet Chan, S. Sharma, J. Yang, R. Olivares  : DMRG
   Ulf Ekstrom                                   : XCFun DFT Library
   Mihaly Kallay                                 : mrcc  (arbitrary order and MRCC methods)
   Andreas Klamt, Michael Diedenhofen            : otool_cosmo (COSMO solvation model)
   Jiri Pittner, Ondrej Demel                    : Mk-CCSD
   Frank Weinhold                                : gennbo (NPA and NBO analysis)
   Christopher J. Cramer and Donald G. Truhlar   : smd solvation model
   Lars Goerigk                                  : TD-DFT with DH, B97 family of functionals
   V. Asgeirsson, H. Jonsson                     : NEB implementation
   FAccTs GmbH                                   : IRC, NEB, NEB-TS, Multilevel, MM, QM/MM, CI optimization
   S Lehtola, MJT Oliveira, MAL Marques          : LibXC Library


 Your calculation uses the libint2 library for the computation of 2-el integrals
 For citations please refer to: http://libint.valeyev.net

 Your ORCA version has been built with support for libXC version: 4.2.3
 For citations please refer to: https://tddft.org/programs/libxc/

 This ORCA versions uses:
   CBLAS   interface :  Fast vector & matrix operations
   LAPACKE interface :  Fast linear algebra routines
   SCALAPACK package :  Parallel linear algebra routines


Your calculation utilizes the atom-pairwise dispersion correction
with the Becke-Johnson damping scheme (D3BJ)
Cite in your paper:
S.Grimme, S.Ehrlich, L.Goerigk, J Comput Chem, (2011), 32, 1456–1465 
S.Grimme, J.Antony, S.Ehrlich and H.Krieg, J.Chem.Phys., 132, (2010), 154104 
   

----- Orbital basis set information -----
Your calculation utilizes the basis: aug-cc-pV(T+d)Z 
             Al - Ar: T.H. Dunning, Jr., K. A. Peterson and A. K. Wilson, J. Chem. Phys.
                      114, 9244 (2001)

----- AuxJ basis set information -----
Your calculation utilizes the auxiliary basis: def2/J
   F. Weigend, Phys. Chem. Chem. Phys. 8, 1057 (2006).

================================================================================
                                        WARNINGS
                       Please study these warnings very carefully!
================================================================================


WARNING: Geometry Optimization
  ===> : Switching off AutoStart
         For restart on a previous wavefunction, please use MOREAD

INFO   : the flag for use of LIBINT has been found!

================================================================================
                                       INPUT FILE
================================================================================
NAME = 07_H2O_6_book.in
|  1> #
|  2> # 07_H2O_6_book tpss/aug-cc-pvt(+d)z
|  3> #
|  4> ! tpss d3bj aug-cc-pvt(+d)z def2/j grid4 nofinalgrid opt xyzfile numfreq
|  5> 
|  6> *xyz 0 1
|  7> O	0.116757	1.553296	0.874144
|  8> H	0.955357	1.526953	0.36374
|  9> H	0.278593	2.140101	1.61497
| 10> O	-0.028991	-1.36957	0.910464
| 11> H	-0.055528	-0.424567	1.109294
| 12> H	-0.872074	-1.539194	0.457007
| 13> O	-2.340721	1.363977	-0.433023
| 14> H	-1.482171	1.543988	-0.013805
| 15> H	-2.349173	1.886417	-1.236377
| 16> O	-2.490803	-1.41279	-0.437012
| 17> H	-2.562332	-0.444637	-0.504051
| 18> H	-3.290032	-1.695404	0.010212
| 19> O	2.424786	1.214249	-0.477895
| 20> H	2.508896	0.237506	-0.500154
| 21> H	2.55493	1.502809	-1.382466
| 22> O	2.31194	-1.486888	-0.434852
| 23> H	1.449966	-1.577886	0.025804
| 24> H	2.919833	-2.054267	0.041233
| 25> *
| 26> 
| 27> %maxcore 5000
| 28> 
| 29> %pal
| 30> nprocs 24
| 31> end
| 32> 
| 33> 
| 34>                          ****END OF INPUT****
================================================================================

                       *****************************
                       * Geometry Optimization Run *
                       *****************************

Geometry optimization settings:
Update method            Update   .... BFGS
Choice of coordinates    CoordSys .... Z-matrix Internals
Initial Hessian          InHess   .... Almoef's Model

Convergence Tolerances:
Energy Change            TolE     ....  5.0000e-06 Eh
Max. Gradient            TolMAXG  ....  3.0000e-04 Eh/bohr
RMS Gradient             TolRMSG  ....  1.0000e-04 Eh/bohr
Max. Displacement        TolMAXD  ....  4.0000e-03 bohr
RMS Displacement         TolRMSD  ....  2.0000e-03 bohr
Strict Convergence                ....  False
------------------------------------------------------------------------------
                        ORCA OPTIMIZATION COORDINATE SETUP
------------------------------------------------------------------------------

The optimization will be done in new redundant internal coordinates
Making redundant internal coordinates   ...  (new redundants) done
Evaluating the initial hessian          ...  (Almloef) done
Evaluating the coordinates              ...  done
Calculating the B-matrix                .... done
Calculating the G-matrix                .... done
Diagonalizing the G-matrix              .... done
The first mode is                       ....  119
The number of degrees of freedom        ....   48

    -----------------------------------------------------------------
                    Redundant Internal Coordinates


    -----------------------------------------------------------------
         Definition                    Initial Value    Approx d2E/dq
    -----------------------------------------------------------------
      1. B(H   1,O   0)                  0.9821         0.479468   
      2. B(H   2,O   0)                  0.9588         0.522197   
      3. B(H   4,O   3)                  0.9661         0.508512   
      4. B(H   4,O   0)                  1.9992         0.011427   
      5. B(H   5,O   3)                  0.9722         0.497156   
      6. B(H   7,O   6)                  0.9722         0.497089   
      7. B(H   7,O   0)                  1.8290         0.021359   
      8. B(H   8,O   6)                  0.9583         0.523160   
      9. B(O   9,H   5)                  1.8535         0.019517   
     10. B(H  10,O   9)                  0.9731         0.495519   
     11. B(H  10,H   7)                  2.3155         0.000764   
     12. B(H  10,H   5)                  2.2313         0.001041   
     13. B(H  10,O   6)                  1.8235         0.021791   
     14. B(H  11,O   9)                  0.9585         0.522905   
     15. B(O  12,H   1)                  1.7220         0.031638   
     16. B(H  13,H   1)                  2.1960         0.001186   
     17. B(H  13,O  12)                  0.9806         0.482041   
     18. B(H  14,O  12)                  0.9584         0.523099   
     19. B(O  15,H  13)                  1.7368         0.029963   
     20. B(H  16,O  15)                  0.9816         0.480341   
     21. B(H  16,H   4)                  2.1842         0.001238   
     22. B(H  16,O   3)                  1.7359         0.030066   
     23. B(H  16,H  13)                  2.1665         0.001321   
     24. B(H  17,O  15)                  0.9582         0.523443   
     25. A(H   1,O   0,H   7)          119.6074         0.199991   
     26. A(H   1,O   0,H   2)          105.8933         0.317823   
     27. A(H   2,O   0,H   7)          121.7208         0.202157   
     28. A(H   2,O   0,H   4)          121.9466         0.187219   
     29. A(H   1,O   0,H   4)           96.2104         0.185339   
     30. A(H   4,O   0,H   7)           88.6667         0.136641   
     31. A(O   0,H   1,H  13)          145.5171         0.135671   
     32. A(O  12,H   1,H  13)           25.5029         0.114226   
     33. A(O   0,H   1,O  12)          170.9471         0.210313   
     34. A(H   4,O   3,H  16)          104.2222         0.210528   
     35. A(H   4,O   3,H   5)          104.0546         0.318325   
     36. A(H   5,O   3,H  16)          118.6979         0.209909   
     37. A(O   0,H   4,O   3)          160.2499         0.186630   
     38. A(O   3,H   4,H  16)           50.3900         0.136764   
     39. A(O   0,H   4,H  16)          113.8689         0.109231   
     40. A(O   3,H   5,H  10)          140.5539         0.134695   
     41. A(O   3,H   5,O   9)          166.0271         0.198643   
     42. A(O   9,H   5,H  10)           25.4751         0.110959   
     43. A(H   7,O   6,H   8)          105.5637         0.319796   
     44. A(H   8,O   6,H  10)          120.4626         0.202717   
     45. A(H   7,O   6,H  10)          107.9236         0.201409   
     46. A(O   6,H   7,H  10)           48.5295         0.131602   
     47. A(O   0,H   7,H  10)          120.9955         0.109896   
     48. A(O   0,H   7,O   6)          169.1964         0.200902   
     49. A(H   5,O   9,H  10)           99.5131         0.198562   
     50. A(H   5,O   9,H  11)          118.8861         0.199904   
     51. A(H  10,O   9,H  11)          105.3202         0.319606   
     52. A(H   5,H  10,H   7)           88.6664         0.097533   
     53. A(H   7,H  10,O   9)          143.6656         0.131572   
     54. A(H   5,H  10,O   6)          112.1913         0.111514   
     55. A(O   6,H  10,O   9)          167.2030         0.201328   
     56. A(H   5,H  10,O   9)           55.0117         0.134661   
     57. A(O   6,H  10,H   7)           23.5469         0.109991   
     58. A(H  13,O  12,H  14)          105.4762         0.318190   
     59. A(H   1,O  12,H  14)          121.5014         0.212728   
     60. A(H   1,O  12,H  13)          105.3765         0.210460   
     61. A(O  12,H  13,O  15)          168.0537         0.208973   
     62. A(H   1,H  13,O  12)           49.1206         0.135728   
     63. A(O  15,H  13,H  16)           26.2981         0.114537   
     64. A(H   1,H  13,H  16)           92.9083         0.098946   
     65. A(O  12,H  13,H  16)          141.9253         0.136889   
     66. A(H   1,H  13,O  15)          119.2064         0.113917   
     67. A(H  13,O  15,H  17)          122.3194         0.211231   
     68. A(H  13,O  15,H  16)          102.0796         0.208877   
     69. A(H  16,O  15,H  17)          105.6076         0.318041   
     70. A(H   4,H  16,H  13)           90.8519         0.099044   
     71. A(H   4,H  16,O  15)          142.1056         0.136152   
     72. A(O   3,H  16,H  13)          116.0783         0.114556   
     73. A(O   3,H  16,O  15)          167.4803         0.208971   
     74. A(H  13,H  16,O  15)           51.6223         0.136851   
     75. A(O   3,H  16,H   4)           25.3878         0.114183   
     76. D(H  13,H   1,O   0,H   4)     -0.0057         0.339672   
     77. D(O  12,H   1,O   0,H   2)    119.4034         0.339672   
     78. D(H  13,H   1,O   0,H   7)    -92.0066         0.339672   
     79. D(O  12,H   1,O   0,H   7)    -98.3574         0.339672   
     80. D(H  13,H   1,O   0,H   2)    125.7542         0.339672   
     81. D(O  12,H   1,O   0,H   4)     -6.3565         0.339672   
     82. D(O   0,H   4,O   3,H  16)     41.3569         0.362059   
     83. D(O   3,H   4,O   0,H   7)     79.9443         0.001582   
     84. D(H  16,H   4,O   0,H   1)     -5.8729         0.001582   
     85. D(H  16,H   4,O   0,H   2)   -118.9822         0.001582   
     86. D(H  16,H   4,O   0,H   7)    113.7687         0.001582   
     87. D(O   0,H   4,O   3,H   5)    -83.6804         0.362059   
     88. D(O   3,H   4,O   0,H   2)   -152.8066         0.001582   
     89. D(H  16,H   4,O   3,H   5)   -125.0373         0.362059   
     90. D(O   3,H   4,O   0,H   1)    -39.6973         0.001582   
     91. D(H  10,H   5,O   3,H  16)   -101.7980         0.341576   
     92. D(H  10,H   5,O   3,H   4)     13.4018         0.341576   
     93. D(O   9,H   5,O   3,H  16)   -101.0106         0.341576   
     94. D(O   9,H   5,O   3,H   4)     14.1891         0.341576   
     95. D(H  10,H   7,O   6,H   8)   -130.0312         0.341457   
     96. D(O   0,H   7,O   6,H  10)    -15.2180         0.341457   
     97. D(O   0,H   7,O   6,H   8)   -145.2492         0.341457   
     98. D(H  10,H   7,O   0,H   2)   -132.9859         0.001794   
     99. D(O   6,H   7,O   0,H   4)      7.7115         0.001794   
    100. D(O   6,H   7,O   0,H   1)    104.0979         0.001794   
    101. D(H  10,H   7,O   0,H   1)     90.8334         0.001794   
    102. D(O   6,H   7,O   0,H   2)   -119.7214         0.001794   
    103. D(H  10,H   7,O   0,H   4)     -5.5530         0.001794   
    104. D(H  11,O   9,H   5,O   3)   -114.6425         0.001723   
    105. D(H  10,O   9,H   5,O   3)     -1.1631         0.001723   
    106. D(H  11,O   9,H   5,H  10)   -113.4795         0.001723   
    107. D(H   7,H  10,O   9,H   5)      1.7205         0.369656   
    108. D(H   7,H  10,O   9,H  11)    125.3459         0.369656   
    109. D(O   6,H  10,O   9,H   5)     -0.1072         0.369656   
    110. D(O   6,H  10,O   9,H  11)    123.5182         0.369656   
    111. D(O   6,H  10,H   7,O   0)    176.7095         0.001507   
    112. D(H   5,H  10,H   7,O   6)   -177.5769         0.001507   
    113. D(H   5,H  10,O   6,H   7)      2.6164         0.001806   
    114. D(H   7,H  10,O   6,H   8)    121.1578         0.001806   
    115. D(H   5,H  10,O   6,H   8)    123.7742         0.001806   
    116. D(O   9,H  10,H   7,O   0)     -2.2773         0.001507   
    117. D(O   9,H  10,O   6,H   8)    123.8690         0.001806   
    118. D(O   9,H  10,O   6,H   7)      2.7112         0.001806   
    119. D(H   7,H  10,H   5,O   9)   -178.9804         0.001512   
    120. D(H   5,H  10,H   7,O   0)     -0.8674         0.001507   
    121. D(H   5,H  10,O   9,H  11)    123.6254         0.369656   
    122. D(O   9,H  10,H   7,O   6)   -178.9868         0.001507   
    123. D(H   7,H  10,H   5,O   3)      0.5776         0.001512   
    124. D(O   6,H  10,H   5,O   9)    179.9744         0.001512   
    125. D(O   6,H  10,H   5,O   3)     -0.4676         0.001512   
    126. D(O   9,H  10,H   5,O   3)    179.5580         0.001512   
    127. D(H  14,O  12,H   1,H  13)    119.5452         0.002109   
    128. D(H  14,O  12,H   1,O   0)    127.9087         0.002109   
    129. D(H  13,O  12,H   1,O   0)      8.3635         0.002109   
    130. D(O  15,H  13,O  12,H   1)     13.2536         0.344366   
    131. D(O  15,H  13,O  12,H  14)   -116.4227         0.344366   
    132. D(H   1,H  13,O  12,H  14)   -129.6763         0.344366   
    133. D(H  16,H  13,H   1,O  12)   -176.8885         0.001515   
    134. D(H  16,H  13,H   1,O   0)      5.4282         0.001515   
    135. D(O  15,H  13,H   1,O  12)   -176.8834         0.001515   
    136. D(O  15,H  13,H   1,O   0)      5.4333         0.001515   
    137. D(H  16,H  13,O  12,H  14)   -124.6333         0.344366   
    138. D(O  12,H  13,H   1,O   0)   -177.6833         0.001515   
    139. D(H  16,H  13,O  12,H   1)      5.0430         0.344366   
    140. D(H  17,O  15,H  13,H  16)   -117.4498         0.002093   
    141. D(H  17,O  15,H  13,H   1)   -117.4613         0.002093   
    142. D(H  17,O  15,H  13,O  12)   -128.9157         0.002093   
    143. D(H  16,O  15,H  13,H   1)     -0.0115         0.002093   
    144. D(H  16,O  15,H  13,O  12)    -11.4659         0.002093   
    145. D(H   4,H  16,O  15,H  13)     -9.3773         0.341260   
    146. D(O   3,H  16,O  15,H  13)    -11.5766         0.341260   
    147. D(O   3,H  16,O  15,H  17)    117.2864         0.341260   
    148. D(H  13,H  16,O  15,H  17)    128.8630         0.341260   
    149. D(H   4,H  16,H  13,H   1)     -5.7542         0.001520   
    150. D(H   4,H  16,H  13,O  12)     -9.5700         0.001520   
    151. D(O   3,H  16,H  13,O  15)    177.2239         0.001520   
    152. D(O   3,H  16,H  13,H   1)     -2.7861         0.001520   
    153. D(O   3,H  16,H  13,O  12)     -6.6019         0.001520   
    154. D(O  15,H  16,H  13,H   1)    179.9900         0.001520   
    155. D(O  15,H  16,H  13,O  12)    176.1742         0.001520   
    156. D(O   3,H  16,H   4,O   0)   -165.8677         0.001517   
    157. D(H  13,H  16,H   4,O   0)      7.9048         0.001517   
    158. D(H  13,H  16,H   4,O   3)    173.7725         0.001517   
    159. D(O  15,H  16,H   4,O   0)     15.2440         0.001517   
    160. D(O  15,H  16,H   4,O   3)   -178.8882         0.001517   
    161. D(H   4,H  16,H  13,O  15)    174.2558         0.001520   
    162. D(H   4,H  16,O   3,H   5)    115.1099         0.002098   
    163. D(H  13,H  16,O   3,H   5)    108.1740         0.002098   
    164. D(H  13,H  16,O   3,H   4)     -6.9359         0.002098   
    165. D(H   4,H  16,O  15,H  17)    119.4857         0.341260   
    166. D(O  15,H  16,O   3,H   5)    118.2613         0.002098   
    167. D(O  15,H  16,O   3,H   4)      3.1515         0.002098   
    -----------------------------------------------------------------

Number of atoms                         .... 18
Number of degrees of freedom            .... 167

         *************************************************************
         *                GEOMETRY OPTIMIZATION CYCLE   1            *
         *************************************************************
---------------------------------
CARTESIAN COORDINATES (ANGSTROEM)
---------------------------------
  O      0.116757    1.553296    0.874144
  H      0.955357    1.526953    0.363740
  H      0.278593    2.140101    1.614970
  O     -0.028991   -1.369570    0.910464
  H     -0.055528   -0.424567    1.109294
  H     -0.872074   -1.539194    0.457007
  O     -2.340721    1.363977   -0.433023
  H     -1.482171    1.543988   -0.013805
  H     -2.349173    1.886417   -1.236377
  O     -2.490803   -1.412790   -0.437012
  H     -2.562332   -0.444637   -0.504051
  H     -3.290032   -1.695404    0.010212
  O      2.424786    1.214249   -0.477895
  H      2.508896    0.237506   -0.500154
  H      2.554930    1.502809   -1.382466
  O      2.311940   -1.486888   -0.434852
  H      1.449966   -1.577886    0.025804
  H      2.919833   -2.054267    0.041233

----------------------------
CARTESIAN COORDINATES (A.U.)
----------------------------
  NO LB      ZA    FRAG     MASS         X           Y           Z
   0 O     8.0000    0    15.999    0.220639    2.935304    1.651893
   1 H     1.0000    0     1.008    1.805363    2.885523    0.687369
   2 H     1.0000    0     1.008    0.526464    4.044205    3.051851
   3 O     8.0000    0    15.999   -0.054785   -2.588112    1.720528
   4 H     1.0000    0     1.008   -0.104933   -0.802315    2.096262
   5 H     1.0000    0     1.008   -1.647981   -2.908655    0.863618
   6 O     8.0000    0    15.999   -4.423322    2.577543   -0.818295
   7 H     1.0000    0     1.008   -2.800897    2.917714   -0.026088
   8 H     1.0000    0     1.008   -4.439294    3.564812   -2.336414
   9 O     8.0000    0    15.999   -4.706936   -2.669786   -0.825833
  10 H     1.0000    0     1.008   -4.842106   -0.840242   -0.952518
  11 H     1.0000    0     1.008   -6.217259   -3.203849    0.019298
  12 O     8.0000    0    15.999    4.582181    2.294598   -0.903091
  13 H     1.0000    0     1.008    4.741126    0.448821   -0.945154
  14 H     1.0000    0     1.008    4.828118    2.839897   -2.612482
  15 O     8.0000    0    15.999    4.368933   -2.809811   -0.821751
  16 H     1.0000    0     1.008    2.740039   -2.981772    0.048762
  17 H     1.0000    0     1.008    5.517685   -3.882002    0.077919

--------------------------------
INTERNAL COORDINATES (ANGSTROEM)
--------------------------------
 O      0   0   0     0.000000000000     0.00000000     0.00000000
 H      1   0   0     0.982067287341     0.00000000     0.00000000
 H      1   2   0     0.958829578808   105.89325923     0.00000000
 O      1   2   3     2.926722958508    91.27121310   230.15359168
 H      4   1   2     0.966058099328    13.34597984   140.56968714
 H      4   1   2     0.972205995206   102.21849031   239.98902584
 O      1   2   3     2.789932861223   120.45305600   146.45374593
 H      7   1   2     0.972242662171     7.05835468   281.98792720
 H      7   1   2     0.958328043636   111.31762838   318.10503051
 O      6   4   1     1.853518685910   166.02711390     0.61250431
 H     10   6   4     0.973103723542    99.51313706   358.83694273
 H     10   6   4     0.958460731388   118.88606425   245.35748984
 O      2   1   3     1.722020572143   170.94714904   119.40344896
 H     13   2   1     0.980610444178   105.37651580     8.36351624
 H     13   2   1     0.958359550679   121.50142387   127.90872660
 O     14  13   2     1.736833522355   168.05371103    13.25357471
 H     16  14  13     0.981572087529   102.07957252   348.53406319
 H     16  14  13     0.958180440374   122.31942840   231.08426767

---------------------------
INTERNAL COORDINATES (A.U.)
---------------------------
 O      0   0   0     0.000000000000     0.00000000     0.00000000
 H      1   0   0     1.855838218157     0.00000000     0.00000000
 H      1   2   0     1.811925313050   105.89325923     0.00000000
 O      1   2   3     5.530704861441    91.27121310   230.15359168
 H      4   1   2     1.825585237187    13.34597984   140.56968714
 H      4   1   2     1.837203076695   102.21849031   239.98902584
 O      1   2   3     5.272209039739   120.45305600   146.45374593
 H      7   1   2     1.837272367217     7.05835468   281.98792720
 H      7   1   2     1.810977548929   111.31762838   318.10503051
 O      6   4   1     3.502642700476   166.02711390     0.61250431
 H     10   6   4     1.838899537393    99.51313706   358.83694273
 H     10   6   4     1.811228292441   118.88606425   245.35748984
 O      2   1   3     3.254147278328   170.94714904   119.40344896
 H     13   2   1     1.853085183558   105.37651580     8.36351624
 H     13   2   1     1.811037088610   121.50142387   127.90872660
 O     14  13   2     3.282139697465   168.05371103    13.25357471
 H     16  14  13     1.854902426131   102.07957252   348.53406319
 H     16  14  13     1.810698619187   122.31942840   231.08426767

---------------------
BASIS SET INFORMATION
---------------------
There are 2 groups of distinct atoms

 Group   1 Type O   : 19s6p3d2f contracted to 5s4p3d2f pattern {88111/3111/111/11}
 Group   2 Type H   : 6s3p2d contracted to 4s3p2d pattern {3111/111/11}

Atom   0O    basis set group =>   1
Atom   1H    basis set group =>   2
Atom   2H    basis set group =>   2
Atom   3O    basis set group =>   1
Atom   4H    basis set group =>   2
Atom   5H    basis set group =>   2
Atom   6O    basis set group =>   1
Atom   7H    basis set group =>   2
Atom   8H    basis set group =>   2
Atom   9O    basis set group =>   1
Atom  10H    basis set group =>   2
Atom  11H    basis set group =>   2
Atom  12O    basis set group =>   1
Atom  13H    basis set group =>   2
Atom  14H    basis set group =>   2
Atom  15O    basis set group =>   1
Atom  16H    basis set group =>   2
Atom  17H    basis set group =>   2
---------------------------------
AUXILIARY/J BASIS SET INFORMATION
---------------------------------
There are 2 groups of distinct atoms

 Group   1 Type O   : 12s5p4d2f1g contracted to 6s4p3d1f1g pattern {711111/2111/211/2/1}
 Group   2 Type H   : 5s2p1d contracted to 3s1p1d pattern {311/2/1}

Atom   0O    basis set group =>   1
Atom   1H    basis set group =>   2
Atom   2H    basis set group =>   2
Atom   3O    basis set group =>   1
Atom   4H    basis set group =>   2
Atom   5H    basis set group =>   2
Atom   6O    basis set group =>   1
Atom   7H    basis set group =>   2
Atom   8H    basis set group =>   2
Atom   9O    basis set group =>   1
Atom  10H    basis set group =>   2
Atom  11H    basis set group =>   2
Atom  12O    basis set group =>   1
Atom  13H    basis set group =>   2
Atom  14H    basis set group =>   2
Atom  15O    basis set group =>   1
Atom  16H    basis set group =>   2
Atom  17H    basis set group =>   2


           ************************************************************
           *        Program running with 24 parallel MPI-processes    *
           *              working on a common directory               *
           ************************************************************
------------------------------------------------------------------------------
                           ORCA GTO INTEGRAL CALCULATION
                           -- RI-GTO INTEGRALS CHOSEN --
------------------------------------------------------------------------------

                         BASIS SET STATISTICS AND STARTUP INFO

Gaussian basis set:
 # of primitive gaussian shells          ...  312
 # of primitive gaussian functions       ...  696
 # of contracted shells                  ...  192
 # of contracted basis functions         ...  552
 Highest angular momentum                ...    3
 Maximum contraction depth               ...    8
Auxiliary gaussian basis set:
 # of primitive gaussian shells          ...  240
 # of primitive gaussian functions       ...  612
 # of contracted shells                  ...  150
 # of contracted aux-basis functions     ...  426
 Highest angular momentum                ...    4
 Maximum contraction depth               ...    7
Ratio of auxiliary to basis functions    ...  0.77
Integral package used                  ... LIBINT
 One Electron integrals                  ... done
 Ordering auxiliary basis shells         ... done
 Integral threshhold             Thresh  ...  2.500e-11
 Primitive cut-off               TCut    ...  2.500e-12
 Pre-screening matrix                    ... done
 Shell pair data                         ... 
 Ordering of the shell pairs             ... done (   0.003 sec) 17028 of 18528 pairs
 Determination of significant pairs      ... done (   0.000 sec)
 Creation of shell pair data             ... done (   0.002 sec)
 Storage of shell pair data              ... done (   0.009 sec)
 Shell pair data done in (   0.015 sec)
 Computing two index integrals           ... done
 Cholesky decomposition of the V-matrix  ... done


Timings:
 Total evaluation time                   ...   0.525 sec (  0.009 min)
 One electron matrix time                ...   0.168 sec (  0.003 min) = 31.9%
 Schwartz matrix evaluation time         ...   0.241 sec (  0.004 min) = 46.0%
 Two index repulsion integral time       ...   0.004 sec (  0.000 min) =  0.8%
 Cholesky decomposition of V             ...   0.078 sec (  0.001 min) = 14.8%
 Three index repulsion integral time     ...   0.000 sec (  0.000 min) =  0.0%



           ************************************************************
           *        Program running with 24 parallel MPI-processes    *
           *              working on a common directory               *
           ************************************************************
-------------------------------------------------------------------------------
                                 ORCA SCF
-------------------------------------------------------------------------------

------------
SCF SETTINGS
------------
Hamiltonian:
 Density Functional     Method          .... DFT(GTOs)
 Exchange Functional    Exchange        .... TPSS
 Correlation Functional Correlation     .... TPSS
 LDA part of GGA corr.  LDAOpt          .... PW91-LDA
 Gradients option       PostSCFGGA      .... off
   Density functional embedding theory  .... OFF
   NL short-range parameter             ....  5.000000
 RI-approximation to the Coulomb term is turned on
   Number of auxiliary basis functions  .... 426


General Settings:
 Integral files         IntName         .... 07_H2O_6_book
 Hartree-Fock type      HFTyp           .... RHF
 Total Charge           Charge          ....    0
 Multiplicity           Mult            ....    1
 Number of Electrons    NEL             ....   60
 Basis Dimension        Dim             ....  552
 Nuclear Repulsion      ENuc            ....    284.3088335758 Eh

Convergence Acceleration:
 DIIS                   CNVDIIS         .... on
   Start iteration      DIISMaxIt       ....    12
   Startup error        DIISStart       ....  0.200000
   # of expansion vecs  DIISMaxEq       ....     5
   Bias factor          DIISBfac        ....   1.050
   Max. coefficient     DIISMaxC        ....  10.000
 Newton-Raphson         CNVNR           .... off
 SOSCF                  CNVSOSCF        .... on
   Start iteration      SOSCFMaxIt      ....   150
   Startup grad/error   SOSCFStart      ....  0.003300
 Level Shifting         CNVShift        .... on
   Level shift para.    LevelShift      ....    0.2500
   Turn off err/grad.   ShiftErr        ....    0.0010
 Zerner damping         CNVZerner       .... off
 Static damping         CNVDamp         .... on
   Fraction old density DampFac         ....    0.7000
   Max. Damping (<1)    DampMax         ....    0.9800
   Min. Damping (>=0)   DampMin         ....    0.0000
   Turn off err/grad.   DampErr         ....    0.1000
 Fernandez-Rico         CNVRico         .... off

SCF Procedure:
 Maximum # iterations   MaxIter         ....   125
 SCF integral mode      SCFMode         .... Direct
   Integral package                     .... LIBINT
 Reset frequency        DirectResetFreq ....    20
 Integral Threshold     Thresh          ....  2.500e-11 Eh
 Primitive CutOff       TCut            ....  2.500e-12 Eh

Convergence Tolerance:
 Convergence Check Mode ConvCheckMode   .... Total+1el-Energy
 Convergence forced     ConvForced      .... 0
 Energy Change          TolE            ....  1.000e-08 Eh
 1-El. energy change                    ....  1.000e-05 Eh
 Orbital Gradient       TolG            ....  1.000e-05
 Orbital Rotation angle TolX            ....  1.000e-05
 DIIS Error             TolErr          ....  5.000e-07


Diagonalization of the overlap matrix:
Smallest eigenvalue                        ... 3.910e-05
Time for diagonalization                   ...    0.055 sec
Threshold for overlap eigenvalues          ... 1.000e-08
Number of eigenvalues below threshold      ... 0
Time for construction of square roots      ...    0.046 sec
Total time needed                          ...    0.103 sec

-------------------
DFT GRID GENERATION
-------------------

General Integration Accuracy     IntAcc      ...  4.670
Radial Grid Type                 RadialGrid  ... Gauss-Chebyshev
Angular Grid (max. acc.)         AngularGrid ... Lebedev-302
Angular grid pruning method      GridPruning ... 3 (G Style)
Weight generation scheme         WeightScheme... Becke
Basis function cutoff            BFCut       ...    1.0000e-11
Integration weight cutoff        WCut        ...    1.0000e-14
Grids for H and He will be reduced by one unit

# of grid points (after initial pruning)     ...  78000 (   0.0 sec)
# of grid points (after weights+screening)   ...  72363 (   0.0 sec)
nearest neighbour list constructed           ...    0.0 sec
Grid point re-assignment to atoms done       ...    0.0 sec
Grid point division into batches done        ...    0.2 sec
Reduced shell lists constructed in    0.3 sec

Total number of grid points                  ...    72363
Total number of batches                      ...     1140
Average number of points per batch           ...       63
Average number of grid points per atom       ...     4020
Average number of shells per batch           ...   142.39 (74.16%)
Average number of basis functions per batch  ...   398.02 (72.11%)
Average number of large shells per batch     ...   115.82 (81.34%)
Average number of large basis fcns per batch ...   317.00 (79.64%)
Maximum spatial batch extension              ...   2.10,  2.67,  2.00 au
Average spatial batch extension              ...   0.04,  0.04,  0.04 au

Time for grid setup =    0.384 sec

------------------------------
INITIAL GUESS: MODEL POTENTIAL
------------------------------
Loading Hartree-Fock densities                     ... done
Calculating cut-offs                               ... done
Setting up the integral package                    ... done
Initializing the effective Hamiltonian             ... done
Starting the Coulomb interaction                   ... done (   0.0 sec)
Reading the grid                                   ... done
Mapping shells                                     ... done
Starting the XC term evaluation                    ... done (   0.1 sec)
  promolecular density results
     # of electrons  =     59.994928870
     EX              =    -52.455807986
     EC              =     -1.943784478
     EX+EC           =    -54.399592464
Transforming the Hamiltonian                       ... done (   0.0 sec)
Diagonalizing the Hamiltonian                      ... done (   0.0 sec)
Back transforming the eigenvectors                 ... done (   0.0 sec)
Now organizing SCF variables                       ... done
                      ------------------
                      INITIAL GUESS DONE (   0.7 sec)
                      ------------------
--------------
SCF ITERATIONS
--------------
ITER       Energy         Delta-E        Max-DP      RMS-DP      [F,P]     Damp
               ***  Starting incremental Fock matrix formation  ***
  0   -458.4214144273   0.000000000000 0.10911324  0.00105956  0.3172086 0.7000
  1   -458.6531342813  -0.231719854089 0.05067885  0.00058777  0.1125189 0.7000
                               ***Turning on DIIS***
  2   -458.7172832972  -0.064149015868 0.05706082  0.00070098  0.0252316 0.0000
  3   -458.8467507691  -0.129467471885 0.01671216  0.00026123  0.0678346 0.0000
  4   -458.8679449890  -0.021194219946 0.00429955  0.00006460  0.0153292 0.0000
  5   -458.8690793964  -0.001134407373 0.00320382  0.00003386  0.0040489 0.0000
                      *** Initiating the SOSCF procedure ***
                           *** Shutting down DIIS ***
                      *** Re-Reading the Fockian *** 
                      *** Removing any level shift *** 
ITER      Energy       Delta-E        Grad      Rot      Max-DP    RMS-DP
  6   -458.86915438  -0.0000749800  0.000248  0.000248  0.001557  0.000021
               *** Restarting incremental Fock matrix formation ***
  7   -458.86917295  -0.0000185693  0.000104  0.000338  0.001431  0.000019
  8   -458.86917407  -0.0000011291  0.000074  0.000064  0.000484  0.000006
  9   -458.86917422  -0.0000001498  0.000046  0.000074  0.000423  0.000006
 10   -458.86917447  -0.0000002435  0.000004  0.000009  0.000026  0.000000
 11   -458.86917447  -0.0000000006  0.000007  0.000005  0.000013  0.000000
                  ***Gradient check signals convergence***
              ***Rediagonalizing the Fockian in SOSCF/NRSCF***

               *****************************************************
               *                     SUCCESS                       *
               *           SCF CONVERGED AFTER  12 CYCLES          *
               *****************************************************


----------------
TOTAL SCF ENERGY
----------------

Total Energy       :         -458.86917447 Eh          -12486.46504 eV

Components:
Nuclear Repulsion  :          284.30883358 Eh            7736.43667 eV
Electronic Energy  :         -743.17800805 Eh          -20222.90171 eV
One Electron Energy:        -1196.73136992 Eh          -32564.71613 eV
Two Electron Energy:          453.55336188 Eh           12341.81442 eV

Virial components:
Potential Energy   :         -915.62621744 Eh          -24915.45605 eV
Kinetic Energy     :          456.75704296 Eh           12428.99102 eV
Virial Ratio       :            2.00462419


DFT components:
N(Alpha)           :       30.000171668857 electrons
N(Beta)            :       30.000171668857 electrons
N(Total)           :       60.000343337714 electrons
E(X)               :      -54.097202022594 Eh       
E(C)               :       -1.994610047067 Eh       
E(XC)              :      -56.091812069661 Eh       
DFET-embed. en.    :        0.000000000000 Eh       

---------------
SCF CONVERGENCE
---------------

  Last Energy change         ...   -4.8308e-09  Tolerance :   1.0000e-08
  Last MAX-Density change    ...    1.7993e-05  Tolerance :   1.0000e-07
  Last RMS-Density change    ...    1.8279e-07  Tolerance :   5.0000e-09
  Last Orbital Gradient      ...    1.9069e-06  Tolerance :   1.0000e-05
  Last Orbital Rotation      ...    2.4835e-06  Tolerance :   1.0000e-05

             **** THE GBW FILE WAS UPDATED (07_H2O_6_book.gbw) ****
             **** DENSITY FILE WAS UPDATED (07_H2O_6_book.scfp) ****
             **** ENERGY FILE WAS UPDATED (07_H2O_6_book.en.tmp) ****
             **** THE GBW FILE WAS UPDATED (07_H2O_6_book.gbw) ****
             **** DENSITY FILE WAS UPDATED (07_H2O_6_book.scfp) ****
----------------
ORBITAL ENERGIES
----------------

  NO   OCC          E(Eh)            E(eV) 
   0   2.0000     -18.901675      -514.3407 
   1   2.0000     -18.890549      -514.0380 
   2   2.0000     -18.889087      -513.9982 
   3   2.0000     -18.878471      -513.7093 
   4   2.0000     -18.878108      -513.6994 
   5   2.0000     -18.865030      -513.3436 
   6   2.0000      -0.968328       -26.3495 
   7   2.0000      -0.954780       -25.9809 
   8   2.0000      -0.950381       -25.8612 
   9   2.0000      -0.941749       -25.6263 
  10   2.0000      -0.937900       -25.5215 
  11   2.0000      -0.923040       -25.1172 
  12   2.0000      -0.506214       -13.7748 
  13   2.0000      -0.495440       -13.4816 
  14   2.0000      -0.491542       -13.3755 
  15   2.0000      -0.481477       -13.1017 
  16   2.0000      -0.477369       -12.9899 
  17   2.0000      -0.463595       -12.6151 
  18   2.0000      -0.392893       -10.6912 
  19   2.0000      -0.367974       -10.0131 
  20   2.0000      -0.357128        -9.7180 
  21   2.0000      -0.345396        -9.3987 
  22   2.0000      -0.333451        -9.0737 
  23   2.0000      -0.313242        -8.5238 
  24   2.0000      -0.288104        -7.8397 
  25   2.0000      -0.276876        -7.5342 
  26   2.0000      -0.275472        -7.4960 
  27   2.0000      -0.266421        -7.2497 
  28   2.0000      -0.262252        -7.1362 
  29   2.0000      -0.253793        -6.9060 
  30   0.0000      -0.037273        -1.0143 
  31   0.0000      -0.013865        -0.3773 
  32   0.0000      -0.007088        -0.1929 
  33   0.0000      -0.003464        -0.0943 
  34   0.0000       0.007854         0.2137 
  35   0.0000       0.034325         0.9340 
  36   0.0000       0.036692         0.9984 
  37   0.0000       0.037172         1.0115 
  38   0.0000       0.042244         1.1495 
  39   0.0000       0.049520         1.3475 
  40   0.0000       0.056409         1.5350 
  41   0.0000       0.064883         1.7656 
  42   0.0000       0.072748         1.9796 
  43   0.0000       0.084059         2.2874 
  44   0.0000       0.089650         2.4395 
  45   0.0000       0.091508         2.4901 
  46   0.0000       0.092308         2.5118 
  47   0.0000       0.096326         2.6212 
  48   0.0000       0.099329         2.7029 
  49   0.0000       0.114410         3.1132 
  50   0.0000       0.115759         3.1500 
  51   0.0000       0.126154         3.4328 
  52   0.0000       0.129826         3.5327 
  53   0.0000       0.133121         3.6224 
  54   0.0000       0.142146         3.8680 
  55   0.0000       0.146139         3.9767 
  56   0.0000       0.148827         4.0498 
  57   0.0000       0.155651         4.2355 
  58   0.0000       0.157989         4.2991 
  59   0.0000       0.159323         4.3354 
  60   0.0000       0.165170         4.4945 
  61   0.0000       0.168877         4.5954 
  62   0.0000       0.171555         4.6683 
  63   0.0000       0.177833         4.8391 
  64   0.0000       0.182392         4.9631 
  65   0.0000       0.186291         5.0692 
  66   0.0000       0.195062         5.3079 
  67   0.0000       0.201279         5.4771 
  68   0.0000       0.208478         5.6730 
  69   0.0000       0.223286         6.0759 
  70   0.0000       0.228617         6.2210 
  71   0.0000       0.231254         6.2927 
  72   0.0000       0.234564         6.3828 
  73   0.0000       0.246375         6.7042 
  74   0.0000       0.256055         6.9676 
  75   0.0000       0.259097         7.0504 
  76   0.0000       0.264277         7.1913 
  77   0.0000       0.265327         7.2199 
  78   0.0000       0.273792         7.4503 
  79   0.0000       0.275571         7.4987 
  80   0.0000       0.289458         7.8766 
  81   0.0000       0.296373         8.0647 
  82   0.0000       0.306028         8.3274 
  83   0.0000       0.312470         8.5028 
  84   0.0000       0.316470         8.6116 
  85   0.0000       0.320034         8.7086 
  86   0.0000       0.323225         8.7954 
  87   0.0000       0.326785         8.8923 
  88   0.0000       0.334043         9.0898 
  89   0.0000       0.336920         9.1681 
  90   0.0000       0.341371         9.2892 
  91   0.0000       0.344808         9.3827 
  92   0.0000       0.350990         9.5509 
  93   0.0000       0.355980         9.6867 
  94   0.0000       0.361292         9.8313 
  95   0.0000       0.363030         9.8786 
  96   0.0000       0.365859         9.9555 
  97   0.0000       0.376183        10.2365 
  98   0.0000       0.382387        10.4053 
  99   0.0000       0.385980        10.5030 
 100   0.0000       0.387669        10.5490 
 101   0.0000       0.393488        10.7073 
 102   0.0000       0.398731        10.8500 
 103   0.0000       0.405395        11.0313 
 104   0.0000       0.412538        11.2257 
 105   0.0000       0.419730        11.4214 
 106   0.0000       0.438595        11.9348 
 107   0.0000       0.446520        12.1504 
 108   0.0000       0.455334        12.3903 
 109   0.0000       0.458701        12.4819 
 110   0.0000       0.474030        12.8990 
 111   0.0000       0.475271        12.9328 
 112   0.0000       0.484886        13.1944 
 113   0.0000       0.504383        13.7250 
 114   0.0000       0.518578        14.1112 
 115   0.0000       0.525971        14.3124 
 116   0.0000       0.535205        14.5637 
 117   0.0000       0.536956        14.6113 
 118   0.0000       0.550290        14.9742 
 119   0.0000       0.563212        15.3258 
 120   0.0000       0.585242        15.9252 
 121   0.0000       0.597315        16.2538 
 122   0.0000       0.598347        16.2819 
 123   0.0000       0.620098        16.8737 
 124   0.0000       0.624986        17.0067 
 125   0.0000       0.627921        17.0866 
 126   0.0000       0.632129        17.2011 
 127   0.0000       0.634398        17.2628 
 128   0.0000       0.646196        17.5839 
 129   0.0000       0.659554        17.9474 
 130   0.0000       0.663889        18.0653 
 131   0.0000       0.671578        18.2746 
 132   0.0000       0.676316        18.4035 
 133   0.0000       0.687940        18.7198 
 134   0.0000       0.693817        18.8797 
 135   0.0000       0.699345        19.0302 
 136   0.0000       0.711225        19.3534 
 137   0.0000       0.712184        19.3795 
 138   0.0000       0.718480        19.5508 
 139   0.0000       0.727339        19.7919 
 140   0.0000       0.734678        19.9916 
 141   0.0000       0.743986        20.2449 
 142   0.0000       0.754706        20.5366 
 143   0.0000       0.761314        20.7164 
 144   0.0000       0.767756        20.8917 
 145   0.0000       0.771916        21.0049 
 146   0.0000       0.786425        21.3997 
 147   0.0000       0.792785        21.5728 
 148   0.0000       0.796571        21.6758 
 149   0.0000       0.804335        21.8871 
 150   0.0000       0.810292        22.0492 
 151   0.0000       0.814065        22.1518 
 152   0.0000       0.818038        22.2599 
 153   0.0000       0.825419        22.4608 
 154   0.0000       0.832068        22.6417 
 155   0.0000       0.833583        22.6829 
 156   0.0000       0.835207        22.7271 
 157   0.0000       0.840441        22.8696 
 158   0.0000       0.849668        23.1207 
 159   0.0000       0.853196        23.2166 
 160   0.0000       0.860190        23.4070 
 161   0.0000       0.864083        23.5129 
 162   0.0000       0.873947        23.7813 
 163   0.0000       0.882348        24.0099 
 164   0.0000       0.886575        24.1249 
 165   0.0000       0.892032        24.2734 
 166   0.0000       0.897828        24.4311 
 167   0.0000       0.903602        24.5883 
 168   0.0000       0.912551        24.8318 
 169   0.0000       0.916747        24.9460 
 170   0.0000       0.927960        25.2511 
 171   0.0000       0.938445        25.5364 
 172   0.0000       0.945451        25.7270 
 173   0.0000       0.949063        25.8253 
 174   0.0000       0.954849        25.9828 
 175   0.0000       0.990245        26.9459 
 176   0.0000       0.992491        27.0071 
 177   0.0000       1.006104        27.3775 
 178   0.0000       1.010341        27.4928 
 179   0.0000       1.012819        27.5602 
 180   0.0000       1.018640        27.7186 
 181   0.0000       1.028793        27.9949 
 182   0.0000       1.037131        28.2218 
 183   0.0000       1.041188        28.3322 
 184   0.0000       1.053047        28.6549 
 185   0.0000       1.059887        28.8410 
 186   0.0000       1.073613        29.2145 
 187   0.0000       1.076245        29.2861 
 188   0.0000       1.081332        29.4245 
 189   0.0000       1.082335        29.4518 
 190   0.0000       1.092286        29.7226 
 191   0.0000       1.104231        30.0477 
 192   0.0000       1.106898        30.1202 
 193   0.0000       1.112520        30.2732 
 194   0.0000       1.119611        30.4662 
 195   0.0000       1.128099        30.6971 
 196   0.0000       1.138007        30.9667 
 197   0.0000       1.141551        31.0632 
 198   0.0000       1.153802        31.3965 
 199   0.0000       1.164027        31.6748 
 200   0.0000       1.165599        31.7176 
 201   0.0000       1.179010        32.0825 
 202   0.0000       1.183386        32.2016 
 203   0.0000       1.195782        32.5389 
 204   0.0000       1.203121        32.7386 
 205   0.0000       1.208065        32.8731 
 206   0.0000       1.220092        33.2004 
 207   0.0000       1.233624        33.5686 
 208   0.0000       1.238219        33.6936 
 209   0.0000       1.243353        33.8333 
 210   0.0000       1.258051        34.2333 
 211   0.0000       1.284627        34.9565 
 212   0.0000       1.287629        35.0382 
 213   0.0000       1.301995        35.4291 
 214   0.0000       1.313155        35.7328 
 215   0.0000       1.324847        36.0509 
 216   0.0000       1.327355        36.1192 
 217   0.0000       1.331482        36.2315 
 218   0.0000       1.345310        36.6077 
 219   0.0000       1.360585        37.0234 
 220   0.0000       1.365216        37.1494 
 221   0.0000       1.377758        37.4907 
 222   0.0000       1.378814        37.5194 
 223   0.0000       1.392089        37.8807 
 224   0.0000       1.421587        38.6833 
 225   0.0000       1.425363        38.7861 
 226   0.0000       1.435622        39.0653 
 227   0.0000       1.456876        39.6436 
 228   0.0000       1.458896        39.6986 
 229   0.0000       1.466766        39.9127 
 230   0.0000       1.474240        40.1161 
 231   0.0000       1.502758        40.8921 
 232   0.0000       1.515863        41.2487 
 233   0.0000       1.517214        41.2855 
 234   0.0000       1.529284        41.6139 
 235   0.0000       1.542066        41.9618 
 236   0.0000       1.550129        42.1812 
 237   0.0000       1.560477        42.4627 
 238   0.0000       1.566029        42.6138 
 239   0.0000       1.576670        42.9034 
 240   0.0000       1.589185        43.2439 
 241   0.0000       1.601528        43.5798 
 242   0.0000       1.602134        43.5963 
 243   0.0000       1.616853        43.9968 
 244   0.0000       1.634883        44.4874 
 245   0.0000       1.644735        44.7555 
 246   0.0000       1.654657        45.0255 
 247   0.0000       1.661834        45.2208 
 248   0.0000       1.674024        45.5525 
 249   0.0000       1.701579        46.3023 
 250   0.0000       1.722641        46.8755 
 251   0.0000       1.734298        47.1926 
 252   0.0000       1.745028        47.4846 
 253   0.0000       1.759920        47.8899 
 254   0.0000       1.767703        48.1017 
 255   0.0000       1.789729        48.7010 
 256   0.0000       1.794521        48.8314 
 257   0.0000       1.804093        49.0919 
 258   0.0000       1.814163        49.3659 
 259   0.0000       1.820573        49.5403 
 260   0.0000       1.838767        50.0354 
 261   0.0000       1.852520        50.4096 
 262   0.0000       1.880643        51.1749 
 263   0.0000       1.882930        51.2371 
 264   0.0000       1.907011        51.8924 
 265   0.0000       1.926394        52.4198 
 266   0.0000       1.951005        53.0895 
 267   0.0000       1.966157        53.5019 
 268   0.0000       2.023678        55.0671 
 269   0.0000       2.030346        55.2485 
 270   0.0000       2.080501        56.6133 
 271   0.0000       2.092962        56.9524 
 272   0.0000       2.094678        56.9991 
 273   0.0000       2.112029        57.4712 
 274   0.0000       2.126184        57.8564 
 275   0.0000       2.149968        58.5036 
 276   0.0000       2.155951        58.6664 
 277   0.0000       2.165989        58.9395 
 278   0.0000       2.168387        59.0048 
 279   0.0000       2.185246        59.4636 
 280   0.0000       2.192134        59.6510 
 281   0.0000       2.197764        59.8042 
 282   0.0000       2.212422        60.2031 
 283   0.0000       2.214374        60.2562 
 284   0.0000       2.241558        60.9959 
 285   0.0000       2.253582        61.3231 
 286   0.0000       2.267045        61.6894 
 287   0.0000       2.270582        61.7857 
 288   0.0000       2.277900        61.9848 
 289   0.0000       2.285929        62.2033 
 290   0.0000       2.297728        62.5244 
 291   0.0000       2.310327        62.8672 
 292   0.0000       2.314753        62.9876 
 293   0.0000       2.327208        63.3265 
 294   0.0000       2.345320        63.8194 
 295   0.0000       2.348766        63.9132 
 296   0.0000       2.362545        64.2881 
 297   0.0000       2.374086        64.6022 
 298   0.0000       2.386314        64.9349 
 299   0.0000       2.400076        65.3094 
 300   0.0000       2.416490        65.7560 
 301   0.0000       2.431615        66.1676 
 302   0.0000       2.441074        66.4250 
 303   0.0000       2.456375        66.8414 
 304   0.0000       2.465150        67.0801 
 305   0.0000       2.480611        67.5009 
 306   0.0000       2.489639        67.7465 
 307   0.0000       2.502509        68.0967 
 308   0.0000       2.520202        68.5782 
 309   0.0000       2.535504        68.9946 
 310   0.0000       2.543647        69.2162 
 311   0.0000       2.552520        69.4576 
 312   0.0000       2.556548        69.5672 
 313   0.0000       2.570712        69.9526 
 314   0.0000       2.585678        70.3599 
 315   0.0000       2.597585        70.6839 
 316   0.0000       2.604974        70.8849 
 317   0.0000       2.614980        71.1572 
 318   0.0000       2.640356        71.8477 
 319   0.0000       2.643808        71.9417 
 320   0.0000       2.662918        72.4617 
 321   0.0000       2.666774        72.5666 
 322   0.0000       2.679526        72.9136 
 323   0.0000       2.693659        73.2982 
 324   0.0000       2.702313        73.5337 
 325   0.0000       2.712615        73.8140 
 326   0.0000       2.739465        74.5446 
 327   0.0000       2.744633        74.6853 
 328   0.0000       2.760696        75.1224 
 329   0.0000       2.769425        75.3599 
 330   0.0000       2.780385        75.6581 
 331   0.0000       2.787795        75.8598 
 332   0.0000       2.805818        76.3502 
 333   0.0000       2.815889        76.6242 
 334   0.0000       2.834448        77.1293 
 335   0.0000       2.849919        77.5502 
 336   0.0000       2.862158        77.8833 
 337   0.0000       2.871821        78.1462 
 338   0.0000       2.890984        78.6677 
 339   0.0000       2.912490        79.2529 
 340   0.0000       2.921100        79.4872 
 341   0.0000       2.934617        79.8550 
 342   0.0000       2.948155        80.2234 
 343   0.0000       2.980225        81.0960 
 344   0.0000       2.988100        81.3103 
 345   0.0000       3.020591        82.1945 
 346   0.0000       3.042899        82.8015 
 347   0.0000       3.106946        84.5443 
 348   0.0000       3.581804        97.4658 
 349   0.0000       3.593858        97.7938 
 350   0.0000       3.602799        98.0371 
 351   0.0000       3.635214        98.9192 
 352   0.0000       3.664454        99.7149 
 353   0.0000       3.773175       102.6733 
 354   0.0000       3.791301       103.1666 
 355   0.0000       3.832753       104.2945 
 356   0.0000       3.837513       104.4240 
 357   0.0000       3.848168       104.7140 
 358   0.0000       3.854374       104.8828 
 359   0.0000       3.871370       105.3453 
 360   0.0000       3.876316       105.4799 
 361   0.0000       3.885730       105.7361 
 362   0.0000       3.893698       105.9529 
 363   0.0000       3.905071       106.2624 
 364   0.0000       3.923585       106.7662 
 365   0.0000       3.931347       106.9774 
 366   0.0000       3.959175       107.7346 
 367   0.0000       3.975640       108.1827 
 368   0.0000       3.979743       108.2943 
 369   0.0000       3.989532       108.5607 
 370   0.0000       4.003568       108.9426 
 371   0.0000       4.010030       109.1185 
 372   0.0000       4.022508       109.4580 
 373   0.0000       4.023270       109.4788 
 374   0.0000       4.029336       109.6438 
 375   0.0000       4.035381       109.8083 
 376   0.0000       4.049644       110.1964 
 377   0.0000       4.065946       110.6400 
 378   0.0000       4.075420       110.8978 
 379   0.0000       4.090381       111.3049 
 380   0.0000       4.105509       111.7166 
 381   0.0000       4.120662       112.1289 
 382   0.0000       4.127196       112.3067 
 383   0.0000       4.166661       113.3806 
 384   0.0000       4.198919       114.2584 
 385   0.0000       4.211364       114.5970 
 386   0.0000       4.225486       114.9813 
 387   0.0000       4.246686       115.5582 
 388   0.0000       4.252098       115.7055 
 389   0.0000       4.273306       116.2826 
 390   0.0000       4.281359       116.5017 
 391   0.0000       4.285512       116.6147 
 392   0.0000       4.295121       116.8762 
 393   0.0000       4.305998       117.1722 
 394   0.0000       4.311552       117.3233 
 395   0.0000       4.315394       117.4278 
 396   0.0000       4.329656       117.8159 
 397   0.0000       4.339869       118.0938 
 398   0.0000       4.349933       118.3677 
 399   0.0000       4.369291       118.8944 
 400   0.0000       4.370146       118.9177 
 401   0.0000       4.379455       119.1710 
 402   0.0000       4.391124       119.4886 
 403   0.0000       4.407961       119.9467 
 404   0.0000       4.420241       120.2809 
 405   0.0000       4.430040       120.5475 
 406   0.0000       4.443625       120.9172 
 407   0.0000       4.454210       121.2052 
 408   0.0000       4.467793       121.5748 
 409   0.0000       4.489035       122.1529 
 410   0.0000       4.508139       122.6727 
 411   0.0000       4.536258       123.4379 
 412   0.0000       4.536685       123.4495 
 413   0.0000       4.564154       124.1970 
 414   0.0000       4.582854       124.7058 
 415   0.0000       4.601486       125.2128 
 416   0.0000       4.625742       125.8728 
 417   0.0000       4.660642       126.8225 
 418   0.0000       4.691669       127.6668 
 419   0.0000       4.703406       127.9862 
 420   0.0000       4.726262       128.6081 
 421   0.0000       4.735770       128.8668 
 422   0.0000       4.754153       129.3671 
 423   0.0000       4.790043       130.3437 
 424   0.0000       4.794025       130.4520 
 425   0.0000       4.818906       131.1291 
 426   0.0000       4.849125       131.9514 
 427   0.0000       4.861459       132.2870 
 428   0.0000       4.879760       132.7850 
 429   0.0000       4.904336       133.4538 
 430   0.0000       4.931299       134.1875 
 431   0.0000       4.939821       134.4194 
 432   0.0000       4.951537       134.7382 
 433   0.0000       4.971335       135.2769 
 434   0.0000       4.983274       135.6018 
 435   0.0000       4.987748       135.7235 
 436   0.0000       5.011122       136.3596 
 437   0.0000       5.017777       136.5406 
 438   0.0000       5.025011       136.7375 
 439   0.0000       5.039552       137.1332 
 440   0.0000       5.050321       137.4262 
 441   0.0000       5.068094       137.9098 
 442   0.0000       5.078502       138.1931 
 443   0.0000       5.094731       138.6347 
 444   0.0000       5.120581       139.3381 
 445   0.0000       5.147499       140.0706 
 446   0.0000       5.156011       140.3022 
 447   0.0000       5.196698       141.4093 
 448   0.0000       5.214030       141.8810 
 449   0.0000       5.247937       142.8036 
 450   0.0000       5.282793       143.7521 
 451   0.0000       5.336794       145.2216 
 452   0.0000       5.365355       145.9987 
 453   0.0000       5.379923       146.3951 
 454   0.0000       5.416426       147.3884 
 455   0.0000       5.425546       147.6366 
 456   0.0000       5.500012       149.6629 
 457   0.0000       5.525376       150.3531 
 458   0.0000       5.557636       151.2310 
 459   0.0000       5.564216       151.4100 
 460   0.0000       5.632453       153.2668 
 461   0.0000       5.702730       155.1792 
 462   0.0000       5.968190       162.4027 
 463   0.0000       5.977434       162.6542 
 464   0.0000       6.027506       164.0168 
 465   0.0000       6.038348       164.3118 
 466   0.0000       6.058220       164.8526 
 467   0.0000       6.145096       167.2166 
 468   0.0000       6.147955       167.2944 
 469   0.0000       6.169710       167.8864 
 470   0.0000       6.178050       168.1133 
 471   0.0000       6.205004       168.8467 
 472   0.0000       6.233783       169.6299 
 473   0.0000       6.247453       170.0018 
 474   0.0000       6.441081       175.2707 
 475   0.0000       6.472405       176.1231 
 476   0.0000       6.484140       176.4424 
 477   0.0000       6.505605       177.0265 
 478   0.0000       6.510293       177.1541 
 479   0.0000       6.554454       178.3558 
 480   0.0000       6.569241       178.7581 
 481   0.0000       6.593838       179.4275 
 482   0.0000       6.609109       179.8430 
 483   0.0000       6.622139       180.1976 
 484   0.0000       6.655713       181.1112 
 485   0.0000       6.682724       181.8462 
 486   0.0000       6.761601       183.9925 
 487   0.0000       6.791958       184.8186 
 488   0.0000       6.799258       185.0172 
 489   0.0000       6.804803       185.1681 
 490   0.0000       6.818712       185.5466 
 491   0.0000       6.832962       185.9344 
 492   0.0000       6.841790       186.1746 
 493   0.0000       6.861439       186.7092 
 494   0.0000       6.873007       187.0240 
 495   0.0000       6.881722       187.2612 
 496   0.0000       6.894386       187.6058 
 497   0.0000       6.902792       187.8345 
 498   0.0000       6.920188       188.3079 
 499   0.0000       6.930253       188.5818 
 500   0.0000       6.938843       188.8155 
 501   0.0000       6.947906       189.0621 
 502   0.0000       6.952309       189.1819 
 503   0.0000       6.967236       189.5881 
 504   0.0000       6.978241       189.8876 
 505   0.0000       6.990381       190.2179 
 506   0.0000       6.994607       190.3329 
 507   0.0000       7.004931       190.6139 
 508   0.0000       7.013746       190.8537 
 509   0.0000       7.022310       191.0868 
 510   0.0000       7.047338       191.7678 
 511   0.0000       7.058852       192.0811 
 512   0.0000       7.065159       192.2527 
 513   0.0000       7.067908       192.3275 
 514   0.0000       7.084724       192.7851 
 515   0.0000       7.104257       193.3167 
 516   0.0000       7.118905       193.7153 
 517   0.0000       7.128120       193.9660 
 518   0.0000       7.152585       194.6317 
 519   0.0000       7.176095       195.2715 
 520   0.0000       7.224886       196.5992 
 521   0.0000       7.300061       198.6448 
 522   0.0000       7.333776       199.5622 
 523   0.0000       7.416823       201.8220 
 524   0.0000       7.441253       202.4868 
 525   0.0000       7.490255       203.8202 
 526   0.0000       7.534286       205.0183 
 527   0.0000       7.576391       206.1641 
 528   0.0000       7.583699       206.3629 
 529   0.0000       7.592220       206.5948 
 530   0.0000       7.601381       206.8441 
 531   0.0000       7.618073       207.2983 
 532   0.0000       7.623666       207.4505 
 533   0.0000       7.643310       207.9850 
 534   0.0000       7.667798       208.6514 
 535   0.0000       7.691069       209.2846 
 536   0.0000       7.707300       209.7263 
 537   0.0000       7.737077       210.5366 
 538   0.0000       7.753467       210.9826 
 539   0.0000       7.813950       212.6284 
 540   0.0000       8.490308       231.0330 
 541   0.0000       8.524564       231.9652 
 542   0.0000       8.526545       232.0191 
 543   0.0000       8.559436       232.9141 
 544   0.0000       8.593712       233.8468 
 545   0.0000       8.621436       234.6012 
 546   0.0000      15.582025       424.0085 
 547   0.0000      16.023734       436.0280 
 548   0.0000      16.300344       443.5549 
 549   0.0000      16.772801       456.4111 
 550   0.0000      16.979367       462.0321 
 551   0.0000      17.387873       473.1481 

                    ********************************
                    * MULLIKEN POPULATION ANALYSIS *
                    ********************************

-----------------------
MULLIKEN ATOMIC CHARGES
-----------------------
   0 O :   -0.544970
   1 H :    0.334668
   2 H :    0.117146
   3 O :   -0.545192
   4 H :    0.323281
   5 H :    0.266437
   6 O :   -0.424398
   7 H :    0.318489
   8 H :    0.125112
   9 O :   -0.406270
  10 H :    0.300702
  11 H :    0.114657
  12 O :   -0.369267
  13 H :    0.282469
  14 H :    0.101408
  15 O :   -0.382771
  16 H :    0.290681
  17 H :    0.097817
Sum of atomic charges:    0.0000000

--------------------------------
MULLIKEN REDUCED ORBITAL CHARGES
--------------------------------
  0 O s       :     4.099353  s :     4.099353
      pz      :     1.368319  p :     4.441465
      px      :     1.478676
      py      :     1.594470
      dz2     :     0.000092  d :     0.004457
      dxz     :     0.002255
      dyz     :    -0.003167
      dx2y2   :     0.003941
      dxy     :     0.001335
      f0      :    -0.000071  f :    -0.000305
      f+1     :     0.000016
      f-1     :    -0.000100
      f+2     :    -0.000268
      f-2     :     0.000083
      f+3     :    -0.000003
      f-3     :     0.000039
  1 H s       :     0.584030  s :     0.584030
      pz      :     0.022080  p :     0.033913
      px      :    -0.036726
      py      :     0.048559
      dz2     :     0.014335  d :     0.047389
      dxz     :     0.004333
      dyz     :     0.010013
      dx2y2   :     0.000837
      dxy     :     0.017871
  2 H s       :     0.759990  s :     0.759990
      pz      :     0.024784  p :     0.106074
      px      :     0.038373
      py      :     0.042917
      dz2     :     0.006874  d :     0.016791
      dxz     :     0.005798
      dyz     :     0.000429
      dx2y2   :     0.001785
      dxy     :     0.001904
  3 O s       :     4.085835  s :     4.085835
      pz      :     1.677814  p :     4.448079
      px      :     1.447347
      py      :     1.322918
      dz2     :     0.001329  d :     0.011454
      dxz     :     0.000113
      dyz     :     0.000596
      dx2y2   :     0.008088
      dxy     :     0.001327
      f0      :     0.000081  f :    -0.000177
      f+1     :     0.000021
      f-1     :     0.000063
      f+2     :    -0.000139
      f-2     :    -0.000009
      f+3     :     0.000071
      f-3     :    -0.000267
  4 H s       :     0.570257  s :     0.570257
      pz      :     0.056730  p :     0.078988
      px      :     0.051564
      py      :    -0.029306
      dz2     :     0.001003  d :     0.027475
      dxz     :     0.001326
      dyz     :     0.015241
      dx2y2   :    -0.005379
      dxy     :     0.015284
  5 H s       :     0.603355  s :     0.603355
      pz      :     0.038397  p :     0.092608
      px      :     0.016606
      py      :     0.037605
      dz2     :     0.014000  d :     0.037600
      dxz     :     0.003956
      dyz     :     0.002921
      dx2y2   :     0.008956
      dxy     :     0.007767
  6 O s       :     3.998739  s :     3.998739
      pz      :     1.336506  p :     4.419566
      px      :     1.447834
      py      :     1.635227
      dz2     :    -0.000752  d :     0.006243
      dxz     :     0.002232
      dyz     :     0.000299
      dx2y2   :     0.003103
      dxy     :     0.001361
      f0      :    -0.000072  f :    -0.000150
      f+1     :     0.000004
      f-1     :     0.000026
      f+2     :     0.000017
      f-2     :    -0.000015
      f+3     :    -0.000102
      f-3     :    -0.000009
  7 H s       :     0.597124  s :     0.597124
      pz      :     0.031536  p :     0.048433
      px      :    -0.046284
      py      :     0.063182
      dz2     :     0.010572  d :     0.035954
      dxz     :     0.003243
      dyz     :     0.004937
      dx2y2   :     0.006184
      dxy     :     0.011018
  8 H s       :     0.752413  s :     0.752413
      pz      :     0.019032  p :     0.105767
      px      :     0.040698
      py      :     0.046038
      dz2     :     0.005318  d :     0.016708
      dxz     :     0.005549
      dyz     :     0.001932
      dx2y2   :     0.002298
      dxy     :     0.001611
  9 O s       :     3.981724  s :     3.981724
      pz      :     1.693879  p :     4.414927
      px      :     1.413351
      py      :     1.307697
      dz2     :     0.003193  d :     0.009740
      dxz     :    -0.001974
      dyz     :     0.000497
      dx2y2   :     0.007214
      dxy     :     0.000809
      f0      :     0.000052  f :    -0.000121
      f+1     :     0.000046
      f-1     :     0.000064
      f+2     :     0.000001
      f-2     :    -0.000041
      f+3     :     0.000055
      f-3     :    -0.000297
 10 H s       :     0.605573  s :     0.605573
      pz      :     0.055319  p :     0.052548
      px      :     0.041822
      py      :    -0.044593
      dz2     :     0.000011  d :     0.041177
      dxz     :     0.000442
      dyz     :     0.022309
      dx2y2   :    -0.001138
      dxy     :     0.019552
 11 H s       :     0.754167  s :     0.754167
      pz      :     0.047130  p :     0.113616
      px      :     0.028595
      py      :     0.037891
      dz2     :     0.006291  d :     0.017560
      dxz     :     0.002426
      dyz     :     0.001369
      dx2y2   :     0.004828
      dxy     :     0.002647
 12 O s       :     3.964375  s :     3.964375
      pz      :     1.285916  p :     4.396680
      px      :     1.780928
      py      :     1.329835
      dz2     :     0.000602  d :     0.008455
      dxz     :     0.000320
      dyz     :     0.000673
      dx2y2   :     0.005828
      dxy     :     0.001033
      f0      :     0.000058  f :    -0.000243
      f+1     :     0.000138
      f-1     :    -0.000370
      f+2     :    -0.000077
      f-2     :     0.000020
      f+3     :    -0.000012
      f-3     :    -0.000000
 13 H s       :     0.615604  s :     0.615604
      pz      :     0.032172  p :     0.055633
      px      :     0.057889
      py      :    -0.034428
      dz2     :    -0.000191  d :     0.046294
      dxz     :     0.000344
      dyz     :     0.017050
      dx2y2   :    -0.000041
      dxy     :     0.029132
 14 H s       :     0.764236  s :     0.764236
      pz      :     0.012371  p :     0.115432
      px      :     0.064412
      py      :     0.038649
      dz2     :     0.002944  d :     0.018923
      dxz     :     0.010077
      dyz     :     0.002616
      dx2y2   :     0.001781
      dxy     :     0.001505
 15 O s       :     3.966924  s :     3.966924
      pz      :     1.557261  p :     4.406062
      px      :     1.258107
      py      :     1.590694
      dz2     :     0.000149  d :     0.009997
      dxz     :     0.005476
      dyz     :     0.001034
      dx2y2   :     0.002481
      dxy     :     0.000856
      f0      :    -0.000009  f :    -0.000213
      f+1     :     0.000009
      f-1     :    -0.000040
      f+2     :    -0.000121
      f-2     :     0.000104
      f+3     :     0.000018
      f-3     :    -0.000173
 16 H s       :     0.615800  s :     0.615800
      pz      :     0.015492  p :     0.043775
      px      :    -0.019895
      py      :     0.048178
      dz2     :     0.010287  d :     0.049744
      dxz     :     0.005869
      dyz     :     0.005315
      dx2y2   :     0.005597
      dxy     :     0.022676
 17 H s       :     0.768853  s :     0.768853
      pz      :     0.038905  p :     0.115417
      px      :     0.031472
      py      :     0.045040
      dz2     :     0.004549  d :     0.017913
      dxz     :     0.002523
      dyz     :     0.001582
      dx2y2   :     0.007445
      dxy     :     0.001815


                     *******************************
                     * LOEWDIN POPULATION ANALYSIS *
                     *******************************

----------------------
LOEWDIN ATOMIC CHARGES
----------------------
   0 O :    1.152681
   1 H :   -0.657986
   2 H :   -0.431457
   3 O :    1.143868
   4 H :   -0.582981
   5 H :   -0.628134
   6 O :    1.124455
   7 H :   -0.651718
   8 H :   -0.462978
   9 O :    1.114050
  10 H :   -0.660217
  11 H :   -0.468870
  12 O :    1.132819
  13 H :   -0.667715
  14 H :   -0.453320
  15 O :    1.125881
  16 H :   -0.670217
  17 H :   -0.458160

-------------------------------
LOEWDIN REDUCED ORBITAL CHARGES
-------------------------------
  0 O s       :     2.934624  s :     2.934624
      pz      :     1.214547  p :     3.773833
      px      :     1.264724
      py      :     1.294562
      dz2     :     0.012615  d :     0.118672
      dxz     :     0.036055
      dyz     :     0.026296
      dx2y2   :     0.038395
      dxy     :     0.005311
      f0      :     0.002184  f :     0.020189
      f+1     :     0.001186
      f-1     :     0.004558
      f+2     :     0.006589
      f-2     :     0.001314
      f+3     :     0.003141
      f-3     :     0.001218
  1 H s       :     0.535847  s :     0.535847
      pz      :     0.185849  p :     0.619013
      px      :     0.295193
      py      :     0.137972
      dz2     :     0.093621  d :     0.503126
      dxz     :     0.141339
      dyz     :     0.047857
      dx2y2   :     0.114624
      dxy     :     0.105684
  2 H s       :     0.579701  s :     0.579701
      pz      :     0.193039  p :     0.516738
      px      :     0.138882
      py      :     0.184816
      dz2     :     0.094756  d :     0.335018
      dxz     :     0.073711
      dyz     :     0.084726
      dx2y2   :     0.039260
      dxy     :     0.042565
  3 O s       :     2.944873  s :     2.944873
      pz      :     1.331964  p :     3.787243
      px      :     1.240793
      py      :     1.214486
      dz2     :     0.008590  d :     0.104470
      dxz     :     0.030107
      dyz     :     0.007576
      dx2y2   :     0.050987
      dxy     :     0.007211
      f0      :     0.002807  f :     0.019545
      f+1     :     0.000683
      f-1     :     0.001773
      f+2     :     0.005334
      f-2     :     0.000715
      f+3     :     0.002871
      f-3     :     0.005363
  4 H s       :     0.559345  s :     0.559345
      pz      :     0.156070  p :     0.581225
      px      :     0.132888
      py      :     0.292268
      dz2     :     0.051578  d :     0.442411
      dxz     :     0.008974
      dyz     :     0.126033
      dx2y2   :     0.128610
      dxy     :     0.127216
  5 H s       :     0.552841  s :     0.552841
      pz      :     0.196562  p :     0.602623
      px      :     0.276628
      py      :     0.129434
      dz2     :     0.074834  d :     0.472669
      dxz     :     0.144877
      dyz     :     0.037367
      dx2y2   :     0.113503
      dxy     :     0.102089
  6 O s       :     2.957598  s :     2.957598
      pz      :     1.218193  p :     3.800467
      px      :     1.280108
      py      :     1.302167
      dz2     :     0.018161  d :     0.098774
      dxz     :     0.017039
      dyz     :     0.025426
      dx2y2   :     0.032173
      dxy     :     0.005976
      f0      :     0.001881  f :     0.018705
      f+1     :     0.000215
      f-1     :     0.006696
      f+2     :     0.003833
      f-2     :     0.000964
      f+3     :     0.002481
      f-3     :     0.002633
  7 H s       :     0.554407  s :     0.554407
      pz      :     0.169705  p :     0.611185
      px      :     0.293936
      py      :     0.147545
      dz2     :     0.080666  d :     0.486125
      dxz     :     0.141023
      dyz     :     0.033682
      dx2y2   :     0.120815
      dxy     :     0.109939
  8 H s       :     0.585084  s :     0.585084
      pz      :     0.214148  p :     0.536099
      px      :     0.142810
      py      :     0.179141
      dz2     :     0.102603  d :     0.341795
      dxz     :     0.088424
      dyz     :     0.088745
      dx2y2   :     0.031831
      dxy     :     0.030191
  9 O s       :     2.963840  s :     2.963840
      pz      :     1.348687  p :     3.807122
      px      :     1.241292
      py      :     1.217143
      dz2     :     0.010204  d :     0.096662
      dxz     :     0.024282
      dyz     :     0.004519
      dx2y2   :     0.045993
      dxy     :     0.011665
      f0      :     0.002013  f :     0.018327
      f+1     :     0.000593
      f-1     :     0.002394
      f+2     :     0.003785
      f-2     :     0.001527
      f+3     :     0.002321
      f-3     :     0.005693
 10 H s       :     0.552692  s :     0.552692
      pz      :     0.152144  p :     0.618085
      px      :     0.135980
      py      :     0.329961
      dz2     :     0.051447  d :     0.489440
      dxz     :     0.003337
      dyz     :     0.143207
      dx2y2   :     0.143926
      dxy     :     0.147523
 11 H s       :     0.586298  s :     0.586298
      pz      :     0.189592  p :     0.539691
      px      :     0.213687
      py      :     0.136412
      dz2     :     0.060647  d :     0.342882
      dxz     :     0.090451
      dyz     :     0.032513
      dx2y2   :     0.083186
      dxy     :     0.076084
 12 O s       :     2.947990  s :     2.947990
      pz      :     1.220447  p :     3.792313
      px      :     1.354955
      py      :     1.216912
      dz2     :     0.035616  d :     0.107004
      dxz     :     0.016428
      dyz     :     0.014257
      dx2y2   :     0.034881
      dxy     :     0.005823
      f0      :     0.005449  f :     0.019874
      f+1     :     0.001044
      f-1     :     0.005121
      f+2     :     0.001739
      f-2     :     0.000741
      f+3     :     0.001183
      f-3     :     0.004597
 13 H s       :     0.538509  s :     0.538509
      pz      :     0.130508  p :     0.625280
      px      :     0.146215
      py      :     0.348558
      dz2     :     0.047122  d :     0.503926
      dxz     :     0.001595
      dyz     :     0.159203
      dx2y2   :     0.151461
      dxy     :     0.144544
 14 H s       :     0.583067  s :     0.583067
      pz      :     0.235388  p :     0.530991
      px      :     0.160464
      py      :     0.135140
      dz2     :     0.116506  d :     0.339262
      dxz     :     0.096996
      dyz     :     0.097211
      dx2y2   :     0.017858
      dxy     :     0.010691
 15 O s       :     2.951268  s :     2.951268
[...]
      1      -0.001603  -0.000705  -0.000347   0.001027   0.000126   0.000660
      2      -0.016400  -0.020155  -0.011515   0.001998   0.002215   0.002621
      3      -0.483772  -0.613348  -0.365204   0.069263   0.056994   0.065672
      4       0.021021   0.032146   0.019760  -0.008186  -0.003894  -0.007041
      5       0.261152   0.338106   0.204500  -0.044939  -0.039290  -0.048194
      6       0.004981   0.006329   0.003141  -0.005471  -0.006593  -0.009386
      7      -0.019374  -0.026389  -0.018980   0.001523  -0.000074   0.000434
      8      -0.027150  -0.036886  -0.025436   0.001589  -0.000891  -0.001334
      9      -0.003284   0.005913  -0.003590  -0.024813   0.043109  -0.012049
     10       0.003000   0.000958   0.001025  -0.008448   0.003642  -0.005000
     11      -0.003568   0.004606  -0.001956  -0.015709   0.024527  -0.007711
     12       0.001807  -0.004386  -0.000334  -0.016059   0.025105  -0.006845
     13      -0.061365   0.010478  -0.027041   0.038014   0.097274   0.034378
     14      -0.023364   0.004379  -0.009264   0.004364   0.038668   0.006778
     15       0.074130  -0.096815   0.056356   0.391833  -0.701252   0.194721
     16       0.019487  -0.017747   0.012434   0.090703  -0.157542   0.040807
     17       0.042338  -0.053367   0.031985   0.238568  -0.420354   0.114567
     18       0.004586   0.005700   0.003167   0.022225   0.023744   0.042838
     19       0.000512   0.001305   0.000588   0.004547   0.005884   0.010119
     20       0.002089   0.002490   0.001361   0.008775   0.009692   0.018443
     21      -0.066704  -0.085572  -0.048008  -0.345718  -0.376786  -0.685688
     22      -0.012040  -0.018787  -0.009136  -0.076830  -0.075175  -0.133321
     23      -0.031003  -0.038425  -0.022341  -0.175069  -0.196510  -0.360264
     24       0.001825   0.001438   0.000432   0.004415   0.007854   0.018525
     25      -0.001852  -0.001370  -0.002012  -0.023800  -0.020365  -0.022787
     26       0.004538   0.004389   0.003357   0.044410   0.046090   0.073788
     27       0.000158  -0.000380  -0.000150  -0.005742  -0.001910   0.004777
     28       0.003472  -0.000224   0.002187   0.047024   0.017531  -0.033002
     29       0.000243  -0.000657   0.000080  -0.002252  -0.001506   0.001934
     30       0.006108   0.000754   0.003291   0.058399   0.013473  -0.032071
     31      -0.050942   0.003499  -0.034046  -0.763418  -0.284267   0.550926
     32       0.004409   0.002056   0.003054   0.078891   0.027692  -0.058781
     33       0.004132  -0.003506   0.003493   0.056570   0.005641  -0.040947
     34       0.002155   0.000192   0.001524   0.039637   0.014863  -0.032018
     35      -0.002455   0.002369  -0.001922  -0.034773  -0.009870   0.028352
     36      -0.001328  -0.000561  -0.000570  -0.000171  -0.000257  -0.000231
     37      -0.037802  -0.001212   0.049152   0.000079   0.000254  -0.000003
     38      -0.004894  -0.000544   0.006821   0.000092   0.000279   0.000120
     39      -0.011776  -0.004357   0.002084  -0.000294   0.001687   0.000434
     40       0.580306   0.020069  -0.802558   0.000246  -0.004148   0.001137
     41       0.067137   0.005914  -0.069626   0.000139  -0.002073  -0.000426
     42      -0.014453  -0.010139   0.003910   0.001166   0.000207  -0.000139
     43      -0.020933   0.001972   0.038565  -0.000240  -0.000121  -0.000211
     44       0.033231   0.014288  -0.034265  -0.000624  -0.000873   0.000625
     45      -0.029497   0.035144  -0.020144   0.005137  -0.005660   0.000290
     46      -0.002367   0.005026  -0.002590   0.000818  -0.000834   0.000047
     47       0.022030  -0.024883   0.013464  -0.003851   0.004519  -0.000236
     48       0.473643  -0.577521   0.334309  -0.090224   0.103608  -0.005501
     49       0.065081  -0.062958   0.028874  -0.007484   0.004450  -0.000632
     50      -0.313321   0.374615  -0.213753   0.059165  -0.069647   0.003845
     51      -0.029593   0.037501  -0.021178   0.007546  -0.010506   0.000553
     52       0.030632  -0.022794  -0.001197  -0.005137   0.006750  -0.000301
     53      -0.007585   0.003848   0.002682   0.002016  -0.003467   0.000251
                 48         49         50         51         52         53    
      0       0.002238  -0.000362   0.001451  -0.000863  -0.000795  -0.001123
      1      -0.000679  -0.005347   0.019808  -0.024477  -0.020517  -0.013707
      2      -0.003087  -0.006223   0.022764  -0.028513  -0.023932  -0.015958
      3      -0.047444  -0.005566   0.017089  -0.033305  -0.027362  -0.010339
      4       0.004343  -0.002586   0.010011  -0.010832  -0.009609  -0.007235
      5       0.028813  -0.000184   0.005989   0.005199   0.003334  -0.003299
      6       0.004437   0.011250  -0.040578   0.050513   0.042296   0.027199
      7       0.017807   0.087397  -0.324388   0.398770   0.335316   0.225212
      8       0.015770   0.098534  -0.365719   0.448633   0.377340   0.253042
      9      -0.004998  -0.000563  -0.000146   0.000469  -0.000232   0.000180
     10      -0.059807  -0.000057  -0.000704   0.000516   0.001013   0.001168
     11      -0.015979  -0.000319  -0.000276   0.000205   0.000228   0.000318
     12       0.018634   0.000383   0.000407  -0.000258  -0.001099  -0.000753
     13       0.961135  -0.000082   0.011170  -0.007845  -0.016542  -0.019027
     14       0.231379   0.000105   0.003029  -0.002190  -0.004134  -0.004137
     15       0.050653   0.009990   0.002519  -0.004902   0.002140  -0.002250
     16      -0.020773   0.000897   0.000038  -0.000710   0.001362   0.000037
     17       0.024485   0.003350   0.001178  -0.003049   0.002027  -0.001214
     18      -0.004223  -0.000837   0.000131  -0.000604  -0.000409   0.004076
     19      -0.001523   0.002422  -0.002803   0.006376   0.004483  -0.022495
     20      -0.001095  -0.006575   0.006322  -0.014819  -0.010415   0.054064
     21       0.071252   0.016096  -0.004664   0.014875   0.010501  -0.082901
     22       0.014307   0.003769  -0.001336   0.005647   0.003660  -0.029332
     23       0.038929   0.005325   0.001354  -0.000900  -0.000548  -0.011938
     24      -0.001017  -0.003531   0.002751  -0.006321  -0.004459   0.022024
     25       0.008648  -0.046029   0.045883  -0.106967  -0.075117   0.385235
     26      -0.019292   0.099737  -0.100948   0.235148   0.165024  -0.845109
     27       0.000541   0.046913   0.006924  -0.005150  -0.001421   0.003028
     28      -0.002024   0.024076   0.003562  -0.002842  -0.000789   0.002219
     29       0.000525  -0.030963  -0.004568   0.003453   0.000905  -0.002066
     30      -0.002494   0.032725   0.004640  -0.003615  -0.000698   0.001317
     31       0.035638  -0.072557  -0.010727   0.010901   0.003083  -0.015565
     32      -0.004360  -0.010291  -0.001381   0.000379  -0.000017   0.002123
     33       0.000724  -0.778310  -0.114736   0.085806   0.023192  -0.050029
     34      -0.001163  -0.306217  -0.045170   0.033674   0.009055  -0.019102
     35       0.000174   0.502448   0.074029  -0.055449  -0.014894   0.032226
     36       0.000289   0.000634  -0.007744  -0.004387  -0.002298  -0.000736
     37      -0.000895   0.002029  -0.023680  -0.013127  -0.005933  -0.001687
     38      -0.000302  -0.003847   0.046158   0.025322   0.013271   0.003723
     39       0.000547   0.000220  -0.002906  -0.002695  -0.000304  -0.000304
     40       0.015093  -0.003546   0.034674   0.021693  -0.003739  -0.000081
     41       0.001080  -0.002548   0.029612   0.015255   0.010028   0.002142
     42      -0.000691  -0.010345   0.125166   0.068599   0.035664   0.009879
     43      -0.000741  -0.028096   0.337187   0.184848   0.097591   0.026883
     44       0.001318   0.063838  -0.763459  -0.417441  -0.218267  -0.060028
     45      -0.001879  -0.002355   0.004077  -0.025953   0.036113  -0.000951
     46      -0.000626   0.001944  -0.003065   0.021912  -0.029947   0.000858
     47       0.001651  -0.001051   0.001673  -0.012428   0.016909  -0.000464
     48       0.040473   0.002175  -0.005234   0.008678  -0.017585   0.000231
     49       0.000157   0.001042  -0.001674   0.013672  -0.018863   0.000258
     50      -0.025182  -0.002775   0.005691  -0.021900   0.033833  -0.000762
     51      -0.007595   0.035587  -0.058933   0.401764  -0.553645   0.014911
     52       0.006022  -0.031845   0.053550  -0.358055   0.494236  -0.013283
     53      -0.002864   0.019853  -0.033309   0.221379  -0.305580   0.008152


-----------
IR SPECTRUM  
-----------

 Mode    freq (cm**-1)   T**2         TX         TY         TZ
-------------------------------------------------------------------
   6:        24.36    1.098590  (  1.038178   0.143973   0.006915)
   7:        38.09    0.858229  (  0.146743  -0.140533   0.903851)
   8:        57.16    2.160605  ( -0.781706  -0.157283  -1.234829)
   9:        78.26    0.792399  (  0.801071  -0.366633  -0.127530)
  10:       103.57    4.922800  ( -0.493531  -1.069860  -1.880061)
  11:       142.27    0.427368  (  0.165074  -0.631560  -0.035361)
  12:       199.42    2.858033  ( -0.960551  -1.314179  -0.456407)
  13:       222.69   57.354635  (  7.183719   2.391661  -0.169638)
  14:       236.62   36.817030  ( -2.039129   4.910779   2.922881)
  15:       259.96   88.761069  (  2.605680  -9.038537  -0.525690)
  16:       283.03   59.516399  ( -3.165532  -6.518851  -2.645825)
  17:       284.81   11.087979  ( -0.120464  -3.317263  -0.263124)
  18:       298.36  115.876631  ( -8.312577  -5.543817  -4.005470)
  19:       307.92  119.729751  (  9.368015  -4.728951   3.099526)
  20:       327.02   15.206170  ( -1.202505   1.673475   3.310534)
  21:       333.56   50.993715  ( -3.448881   6.136073   1.203140)
  22:       350.43   73.651480  ( -5.021230  -0.858112   6.906690)
  23:       421.44   33.881157  (  4.538579   2.366475   2.771688)
  24:       450.79   46.532009  ( -1.096867   4.366907  -5.124355)
  25:       486.95   47.985884  ( -4.441277  -3.188651   4.253640)
  26:       499.61   10.005093  (  0.993282  -2.994305   0.229396)
  27:       530.61   33.346261  (  4.449755  -1.931664  -3.132829)
  28:       582.23    4.453831  (  1.717890   1.214163  -0.168794)
  29:       653.47   79.994244  (  1.236954   4.332632  -7.726091)
  30:       781.25  148.828626  (  2.889020  -9.583757  -6.973793)
  31:       831.59  124.612804  ( -1.837809  -7.338539   8.208600)
  32:       914.71  207.610939  ( 12.703236   1.599419   6.609129)
  33:       938.26   10.227515  (  1.195406   0.303687   2.950643)
  34:       983.84   80.975045  (  2.276280  -7.967995  -3.507798)
  35:      1102.53   21.469692  (  2.904795   0.951094  -3.482424)
  36:      1631.92   52.973022  ( -5.484665  -2.770892  -3.900465)
  37:      1642.46   83.396016  ( -4.572820  -1.662389   7.727988)
  38:      1653.59   73.701694  ( -3.163718   7.916769  -1.008636)
  39:      1669.73    4.605828  (  2.121914   0.104709   0.303886)
  40:      1684.28   38.038414  (  5.141465  -3.314745   0.784997)
  41:      1713.29   16.916359  (  3.054637  -2.298888   1.516795)
  42:      2919.60  379.484812  (  2.084396  19.356625  -0.679111)
  43:      3041.77  2800.439215  (-48.559658   5.354563  20.340293)
  44:      3106.81  727.191858  ( -2.299903 -26.865900   0.354600)
  45:      3239.24  419.715327  ( -0.030695 -20.237398   3.187805)
  46:      3327.58  1102.623972  (-26.495413 -10.044775 -17.312411)
  47:      3344.56  408.964534  ( -9.888462  14.133341 -10.556114)
  48:      3556.48  364.531450  (  4.960824  18.150138   3.239468)
  49:      3761.26   56.436538  ( -3.308276  -5.193908   4.302926)
  50:      3762.50   46.902418  (  0.547346   1.992181  -6.529475)
  51:      3763.47   30.466454  (  3.850102   2.799373   2.794043)
  52:      3763.84   56.144675  ( -4.591862   5.312699   2.614327)
  53:      3766.16   40.030767  ( -4.129903   2.508456  -4.084399)

The first frequency considered to be a vibration is 6
The total number of vibrations considered is 48


--------------------------
THERMOCHEMISTRY AT 298.15K
--------------------------

Temperature         ... 298.15 K
Pressure            ... 1.00 atm
Total Mass          ... 108.09 AMU

Throughout the following assumptions are being made:
  (1) The electronic state is orbitally nondegenerate
  (2) There are no thermally accessible electronically excited states
  (3) Hindered rotations indicated by low frequency modes are not
      treated as such but are treated as vibrations and this may
      cause some error
  (4) All equations used are the standard statistical mechanics
      equations for an ideal gas
  (5) All vibrations are strictly harmonic

freq.      24.36  E(vib)   ...       0.56 
freq.      38.09  E(vib)   ...       0.54 
freq.      57.16  E(vib)   ...       0.51 
freq.      78.26  E(vib)   ...       0.49 
freq.     103.57  E(vib)   ...       0.46 
freq.     142.27  E(vib)   ...       0.41 
freq.     199.42  E(vib)   ...       0.35 
freq.     222.69  E(vib)   ...       0.33 
freq.     236.62  E(vib)   ...       0.32 
freq.     259.96  E(vib)   ...       0.30 
freq.     283.03  E(vib)   ...       0.28 
freq.     284.81  E(vib)   ...       0.28 
freq.     298.36  E(vib)   ...       0.26 
freq.     307.92  E(vib)   ...       0.26 
freq.     327.02  E(vib)   ...       0.24 
freq.     333.56  E(vib)   ...       0.24 
freq.     350.43  E(vib)   ...       0.23 
freq.     421.44  E(vib)   ...       0.18 
freq.     450.79  E(vib)   ...       0.17 
freq.     486.95  E(vib)   ...       0.15 
freq.     499.61  E(vib)   ...       0.14 
freq.     530.61  E(vib)   ...       0.13 
freq.     582.23  E(vib)   ...       0.11 
freq.     653.47  E(vib)   ...       0.08 
freq.     781.25  E(vib)   ...       0.05 
freq.     831.59  E(vib)   ...       0.04 
freq.     914.71  E(vib)   ...       0.03 
freq.     938.26  E(vib)   ...       0.03 
freq.     983.84  E(vib)   ...       0.02 
freq.    1102.53  E(vib)   ...       0.02 
freq.    1631.92  E(vib)   ...       0.00 
freq.    1642.46  E(vib)   ...       0.00 
freq.    1653.59  E(vib)   ...       0.00 
freq.    1669.73  E(vib)   ...       0.00 
freq.    1684.28  E(vib)   ...       0.00 
freq.    1713.29  E(vib)   ...       0.00 
freq.    2919.60  E(vib)   ...       0.00 
freq.    3041.77  E(vib)   ...       0.00 
freq.    3106.81  E(vib)   ...       0.00 
freq.    3239.24  E(vib)   ...       0.00 
freq.    3327.58  E(vib)   ...       0.00 
freq.    3344.56  E(vib)   ...       0.00 
freq.    3556.48  E(vib)   ...       0.00 
freq.    3761.26  E(vib)   ...       0.00 
freq.    3762.50  E(vib)   ...       0.00 
freq.    3763.47  E(vib)   ...       0.00 
freq.    3763.84  E(vib)   ...       0.00 
freq.    3766.16  E(vib)   ...       0.00 

------------
INNER ENERGY
------------

The inner energy is: U= E(el) + E(ZPE) + E(vib) + E(rot) + E(trans)
    E(el)   - is the total energy from the electronic structure calculation
              = E(kin-el) + E(nuc-el) + E(el-el) + E(nuc-nuc)
    E(ZPE)  - the the zero temperature vibrational energy from the frequency calculation
    E(vib)  - the the finite temperature correction to E(ZPE) due to population
              of excited vibrational states
    E(rot)  - is the rotational thermal energy
    E(trans)- is the translational thermal energy

Summary of contributions to the inner energy U:
Electronic energy                ...   -458.88207119 Eh
Zero point energy                ...      0.14596988 Eh      91.60 kcal/mol
Thermal vibrational correction   ...      0.01148590 Eh       7.21 kcal/mol
Thermal rotational correction    ...      0.00141627 Eh       0.89 kcal/mol
Thermal translational correction ...      0.00141627 Eh       0.89 kcal/mol
-----------------------------------------------------------------------
Total thermal energy                   -458.72178286 Eh


Summary of corrections to the electronic energy:
(perhaps to be used in another calculation)
Total thermal correction                  0.01431844 Eh       8.98 kcal/mol
Non-thermal (ZPE) correction              0.14596988 Eh      91.60 kcal/mol
-----------------------------------------------------------------------
Total correction                          0.16028833 Eh     100.58 kcal/mol


--------
ENTHALPY
--------

The enthalpy is H = U + kB*T
                kB is Boltzmann's constant
Total free energy                 ...   -458.72178286 Eh 
Thermal Enthalpy correction       ...      0.00094421 Eh       0.59 kcal/mol
-----------------------------------------------------------------------
Total Enthalpy                    ...   -458.72083865 Eh


Note: Only C1 symmetry has been detected, increase convergence thresholds 
      if your molecule has a higher symmetry. Symmetry factor of 1.0 is   
      used for the rotational entropy correction. 
 

Note: Rotational entropy computed according to Herzberg 
Infrared and Raman Spectra, Chapter V,1, Van Nostrand Reinhold, 1945 
Point Group:  C1, Symmetry Number:   1  
Rotational constants in cm-1:     0.065049     0.038530     0.028178 

Vibrational entropy computed according to the QRRHO of S. Grimme
Chem.Eur.J. 2012 18 9955


-------
ENTROPY
-------

The entropy contributions are T*S = T*(S(el)+S(vib)+S(rot)+S(trans))
     S(el)   - electronic entropy
     S(vib)  - vibrational entropy
     S(rot)  - rotational entropy
     S(trans)- translational entropy
The entropies will be listed as mutliplied by the temperature to get
units of energy

Electronic entropy                ...      0.00000000 Eh      0.00 kcal/mol
Vibrational entropy               ...      0.02054505 Eh     12.89 kcal/mol
Rotational entropy                ...      0.01402313 Eh      8.80 kcal/mol
Translational entropy             ...      0.01898142 Eh     11.91 kcal/mol
-----------------------------------------------------------------------
Final entropy term                ...      0.05354961 Eh     33.60 kcal/mol

In case the symmetry of your molecule has not been determined correctly
or in case you have a reason to use a different symmetry number we print 
out the resulting rotational entropy values for sn=1,12 :
 --------------------------------------------------------
|  sn= 1 | S(rot)=       0.01402313 Eh      8.80 kcal/mol|
|  sn= 2 | S(rot)=       0.01336868 Eh      8.39 kcal/mol|
|  sn= 3 | S(rot)=       0.01298584 Eh      8.15 kcal/mol|
|  sn= 4 | S(rot)=       0.01271422 Eh      7.98 kcal/mol|
|  sn= 5 | S(rot)=       0.01250353 Eh      7.85 kcal/mol|
|  sn= 6 | S(rot)=       0.01233139 Eh      7.74 kcal/mol|
|  sn= 7 | S(rot)=       0.01218584 Eh      7.65 kcal/mol|
|  sn= 8 | S(rot)=       0.01205976 Eh      7.57 kcal/mol|
|  sn= 9 | S(rot)=       0.01194855 Eh      7.50 kcal/mol|
|  sn=10 | S(rot)=       0.01184908 Eh      7.44 kcal/mol|
|  sn=11 | S(rot)=       0.01175909 Eh      7.38 kcal/mol|
|  sn=12 | S(rot)=       0.01167693 Eh      7.33 kcal/mol|
 --------------------------------------------------------


-------------------
GIBBS FREE ENERGY
-------------------

The Gibbs free energy is G = H - T*S

Total enthalpy                    ...   -458.72083865 Eh 
Total entropy correction          ...     -0.05354961 Eh    -33.60 kcal/mol
-----------------------------------------------------------------------
Final Gibbs free energy         ...   -458.77438826 Eh

For completeness - the Gibbs free energy minus the electronic energy
G-E(el)                           ...      0.10768293 Eh     67.57 kcal/mol


Total Time for Numerical Frequencies  :       610.891 sec

Timings for individual modules:

Sum of individual times         ...      388.524 sec (=   6.475 min)
GTO integral calculation        ...       32.480 sec (=   0.541 min)   8.4 %
SCF iterations                  ...      219.499 sec (=   3.658 min)  56.5 %
SCF Gradient evaluation         ...      130.807 sec (=   2.180 min)  33.7 %
Geometry relaxation             ...        5.738 sec (=   0.096 min)   1.5 %
                             ****ORCA TERMINATED NORMALLY****
TOTAL RUN TIME: 0 days 0 hours 16 minutes 38 seconds 329 msec
