
                                 *****************
                                 * O   R   C   A *
                                 *****************

           --- An Ab Initio, DFT and Semiempirical electronic structure package ---

                  #######################################################
                  #                        -***-                        #
                  #          Department of theory and spectroscopy      #
                  #               Directorship: Frank Neese             #
                  #        Max Planck Institute fuer Kohlenforschung    #
                  #                Kaiser Wilhelm Platz 1               #
                  #                 D-45470 Muelheim/Ruhr               #
                  #                      Germany                        #
                  #                                                     #
                  #                  All rights reserved                #
                  #                        -***-                        #
                  #######################################################


                         Program Version 4.2.0 -  RELEASE  -


 With contributions from (in alphabetic order):
   Daniel Aravena         : Magnetic Suceptibility
   Michael Atanasov       : Ab Initio Ligand Field Theory (pilot matlab implementation)
   Alexander A. Auer      : GIAO ZORA, VPT2
   Ute Becker             : Parallelization
   Giovanni Bistoni       : ED, misc. LED, open-shell LED, HFLED
   Martin Brehm           : Molecular dynamics
   Dmytro Bykov           : SCF Hessian
   Vijay G. Chilkuri      : MRCI spin determinant printing, contributions to CSF-ICE
   Dipayan Datta          : RHF DLPNO-CCSD density
   Achintya Kumar Dutta   : EOM-CC, STEOM-CC
   Dmitry Ganyushin       : Spin-Orbit,Spin-Spin,Magnetic field MRCI
   Miquel Garcia          : C-PCM Hessian, Gaussian charge scheme
   Yang Guo               : DLPNO-NEVPT2, CIM, IAO-localization
   Andreas Hansen         : Spin unrestricted coupled pair/coupled cluster methods
   Benjamin Helmich-Paris : CASSCF linear response (MC-RPA)
   Lee Huntington         : MR-EOM, pCC
   Robert Izsak           : Overlap fitted RIJCOSX, COSX-SCS-MP3, EOM
   Christian Kollmar      : KDIIS, OOCD, Brueckner-CCSD(T), CCSD density
   Simone Kossmann        : Meta GGA functionals, TD-DFT gradient, OOMP2, MP2 Hessian
   Martin Krupicka        : AUTO-CI
   Lucas Lang             : DCDCAS
   Dagmar Lenk            : GEPOL surface, SMD
   Dimitrios Liakos       : Extrapolation schemes; Compound Job, initial MDCI parallelization
   Dimitrios Manganas     : Further ROCIS development; embedding schemes
   Dimitrios Pantazis     : SARC Basis sets
   Taras Petrenko         : DFT Hessian,TD-DFT gradient, ASA, ECA, R-Raman, ABS, FL, XAS/XES, NRVS
   Peter Pinski           : DLPNO-MP2, DLPNO-MP2 Gradient
   Christoph Reimann      : Effective Core Potentials
   Marius Retegan         : Local ZFS, SOC
   Christoph Riplinger    : Optimizer, TS searches, QM/MM, DLPNO-CCSD(T), (RO)-DLPNO pert. Triples
   Tobias Risthaus        : Range-separated hybrids, TD-DFT gradient, RPA, STAB
   Michael Roemelt        : Original ROCIS implementation
   Masaaki Saitow         : Open-shell DLPNO-CCSD energy and density
   Barbara Sandhoefer     : DKH picture change effects
   Avijit Sen             : IP-ROCIS
   Kantharuban Sivalingam : CASSCF convergence, NEVPT2, FIC-MRCI
   Bernardo de Souza      : ESD, SOC TD-DFT
   Georgi Stoychev        : AutoAux, RI-MP2 NMR
   Willem Van den Heuvel  : Paramagnetic NMR
   Boris Wezisla          : Elementary symmetry handling
   Frank Wennmohs         : Technical directorship


 We gratefully acknowledge several colleagues who have allowed us to
 interface, adapt or use parts of their codes:
   Stefan Grimme, W. Hujo, H. Kruse,             : VdW corrections, initial TS optimization,
                  C. Bannwarth                     DFT functionals, gCP, sTDA/sTD-DF
   Ed Valeev, F. Pavosevic, A. Kumar             : LibInt (2-el integral package), F12 methods
   Garnet Chan, S. Sharma, J. Yang, R. Olivares  : DMRG
   Ulf Ekstrom                                   : XCFun DFT Library
   Mihaly Kallay                                 : mrcc  (arbitrary order and MRCC methods)
   Andreas Klamt, Michael Diedenhofen            : otool_cosmo (COSMO solvation model)
   Jiri Pittner, Ondrej Demel                    : Mk-CCSD
   Frank Weinhold                                : gennbo (NPA and NBO analysis)
   Christopher J. Cramer and Donald G. Truhlar   : smd solvation model
   Lars Goerigk                                  : TD-DFT with DH, B97 family of functionals
   V. Asgeirsson, H. Jonsson                     : NEB implementation
   FAccTs GmbH                                   : IRC, NEB, NEB-TS, Multilevel, MM, QM/MM, CI optimization
   S Lehtola, MJT Oliveira, MAL Marques          : LibXC Library


 Your calculation uses the libint2 library for the computation of 2-el integrals
 For citations please refer to: http://libint.valeyev.net

 Your ORCA version has been built with support for libXC version: 4.2.3
 For citations please refer to: https://tddft.org/programs/libxc/

 This ORCA versions uses:
   CBLAS   interface :  Fast vector & matrix operations
   LAPACKE interface :  Fast linear algebra routines
   SCALAPACK package :  Parallel linear algebra routines


Your calculation utilizes the atom-pairwise dispersion correction
with the Becke-Johnson damping scheme (D3BJ)
Cite in your paper:
S.Grimme, S.Ehrlich, L.Goerigk, J Comput Chem, (2011), 32, 1456–1465 
S.Grimme, J.Antony, S.Ehrlich and H.Krieg, J.Chem.Phys., 132, (2010), 154104 
   

----- Orbital basis set information -----
Your calculation utilizes the basis: aug-cc-pV(T+d)Z 
             Al - Ar: T.H. Dunning, Jr., K. A. Peterson and A. K. Wilson, J. Chem. Phys.
                      114, 9244 (2001)

----- AuxJ basis set information -----
Your calculation utilizes the auxiliary basis: def2/J
   F. Weigend, Phys. Chem. Chem. Phys. 8, 1057 (2006).

================================================================================
                                        WARNINGS
                       Please study these warnings very carefully!
================================================================================


WARNING: Geometry Optimization
  ===> : Switching off AutoStart
         For restart on a previous wavefunction, please use MOREAD

INFO   : the flag for use of LIBINT has been found!

================================================================================
                                       INPUT FILE
================================================================================
NAME = 08_H2O_6_cage.in
|  1> #
|  2> # 08_H2O_6_cage tpss/aug-cc-pvt(+d)z
|  3> #
|  4> ! tpss d3bj aug-cc-pvt(+d)z def2/j grid4 nofinalgrid opt xyzfile numfreq
|  5> 
|  6> *xyz 0 1
|  7> O	0.862065	-1.728538	-0.448765
|  8> H	1.679686	-1.216793	-0.290371
|  9> H	1.141594	-2.607406	-0.70991
| 10> O	-0.751083	0.359939	-1.648316
| 11> H	-0.283702	-0.473988	-1.502279
| 12> H	-1.624922	0.21572	-1.247934
| 13> O	0.590537	1.75631	0.198185
| 14> H	0.069166	1.374794	-0.548651
| 15> H	0.493944	2.707937	0.134574
| 16> O	-0.675492	-0.446436	1.665684
| 17> H	-0.188802	-1.063799	1.102054
| 18> H	-0.260662	0.405216	1.474464
| 19> O	2.803582	0.112403	0.084677
| 20> H	2.165098	0.844551	0.158067
| 21> H	3.282044	0.106258	0.915526
| 22> O	-2.901034	0.010949	0.089937
| 23> H	-2.258917	-0.224605	0.785219
| 24> H	-3.643112	-0.584893	0.198028
| 25> *
| 26> 
| 27> %maxcore 5000
| 28> 
| 29> %pal
| 30> nprocs 24
| 31> end
| 32> 
| 33> 
| 34>                          ****END OF INPUT****
================================================================================

                       *****************************
                       * Geometry Optimization Run *
                       *****************************

Geometry optimization settings:
Update method            Update   .... BFGS
Choice of coordinates    CoordSys .... Z-matrix Internals
Initial Hessian          InHess   .... Almoef's Model

Convergence Tolerances:
Energy Change            TolE     ....  5.0000e-06 Eh
Max. Gradient            TolMAXG  ....  3.0000e-04 Eh/bohr
RMS Gradient             TolRMSG  ....  1.0000e-04 Eh/bohr
Max. Displacement        TolMAXD  ....  4.0000e-03 bohr
RMS Displacement         TolRMSD  ....  2.0000e-03 bohr
Strict Convergence                ....  False
------------------------------------------------------------------------------
                        ORCA OPTIMIZATION COORDINATE SETUP
------------------------------------------------------------------------------

The optimization will be done in new redundant internal coordinates
Making redundant internal coordinates   ...  (new redundants) done
Evaluating the initial hessian          ...  (Almloef) done
Evaluating the coordinates              ...  done
Calculating the B-matrix                .... done
Calculating the G-matrix                .... done
Diagonalizing the G-matrix              .... done
The first mode is                       ....  268
The number of degrees of freedom        ....   48

    -----------------------------------------------------------------
                    Redundant Internal Coordinates


    -----------------------------------------------------------------
         Definition                    Initial Value    Approx d2E/dq
    -----------------------------------------------------------------
      1. B(H   1,O   0)                  0.9775         0.487609   
      2. B(H   2,O   0)                  0.9585         0.522809   
      3. B(H   4,O   3)                  0.9671         0.506643   
      4. B(H   4,O   0)                  1.9991         0.011431   
      5. B(H   5,O   3)                  0.9720         0.497612   
      6. B(H   7,H   4)                  2.1100         0.001626   
      7. B(H   7,O   3)                  1.7065         0.033500   
      8. B(H   7,O   6)                  0.9875         0.470003   
      9. B(H   7,H   5)                  2.1685         0.001312   
     10. B(H   8,O   6)                  0.9586         0.522581   
     11. B(H  10,O   0)                  1.9878         0.011918   
     12. B(H  10,H   1)                  2.3353         0.000711   
     13. B(H  10,O   9)                  0.9673         0.506184   
     14. B(H  11,H   7)                  2.2676         0.000911   
     15. B(H  11,O   6)                  2.0442         0.009686   
     16. B(H  11,O   9)                  0.9664         0.507844   
     17. B(O  12,H   1)                  1.7806         0.025512   
     18. B(H  13,O   6)                  1.8199         0.022080   
     19. B(H  13,H   1)                  2.1647         0.001330   
     20. B(H  13,O  12)                  0.9742         0.493506   
     21. B(H  13,H   7)                  2.2745         0.000888   
     22. B(H  14,O  12)                  0.9588         0.522277   
     23. B(O  15,H   5)                  1.8602         0.019045   
     24. B(H  16,H  11)                  2.2056         0.001144   
     25. B(H  16,H  10)                  2.2561         0.000951   
     26. B(H  16,O   9)                  1.8253         0.021650   
     27. B(H  16,H   5)                  2.1748         0.001282   
     28. B(H  16,O  15)                  0.9753         0.491531   
     29. B(H  17,O  15)                  0.9578         0.524165   
     30. A(H   4,O   0,H  10)           84.1622         0.130751   
     31. A(H   2,O   0,H   4)          126.7959         0.187252   
     32. A(H   1,O   0,H  10)           98.0887         0.186633   
     33. A(H   1,O   0,H   4)          103.6653         0.185714   
     34. A(H   2,O   0,H  10)          132.3270         0.188186   
     35. A(H   1,O   0,H   2)          106.2749         0.318758   
     36. A(H  10,H   1,O  12)          109.3008         0.110399   
     37. A(O  12,H   1,H  13)           26.3603         0.113660   
     38. A(O   0,H   1,H  10)           57.4292         0.130727   
     39. A(O   0,H   1,H  13)          136.0277         0.137086   
     40. A(O   0,H   1,O  12)          162.3447         0.204986   
     41. A(H  10,H   1,H  13)           89.6282         0.097872   
     42. A(H   5,O   3,H   7)          104.7699         0.212930   
     43. A(H   4,O   3,H   5)          104.1436         0.318181   
     44. A(H   4,O   3,H   7)          100.5572         0.213436   
     45. A(O   3,H   4,H   7)           52.6623         0.139762   
     46. A(O   0,H   4,O   3)          153.8607         0.186556   
     47. A(O   0,H   4,H   7)          102.4647         0.110520   
     48. A(O  15,H   5,H  16)           26.5348         0.111889   
     49. A(H   7,H   5,H  16)           91.9766         0.099106   
     50. A(O   3,H   5,O  15)          158.3358         0.198060   
     51. A(O   3,H   5,H  16)          132.6293         0.136904   
     52. A(H   7,H   5,O  15)          111.2749         0.112008   
     53. A(O   3,H   5,H   7)           49.5462         0.137154   
     54. A(H   8,O   6,H  13)          125.6646         0.203028   
     55. A(H   7,O   6,H   8)          106.2686         0.316831   
     56. A(H   8,O   6,H  11)          130.9632         0.183628   
     57. A(H   7,O   6,H  11)           89.8273         0.181383   
     58. A(H  11,O   6,H  13)           92.4586         0.135238   
     59. A(H   7,O   6,H  13)          104.2743         0.200324   
     60. A(O   3,H   7,H  11)          104.5211         0.113078   
     61. A(H   4,H   7,H  13)           95.1792         0.098766   
     62. A(O   3,H   7,H   4)           26.7805         0.116450   
     63. A(H   4,H   7,O   6)          140.2320         0.138907   
     64. A(H   5,H   7,H  13)          134.0648         0.098302   
     65. A(O   3,H   7,H  13)          120.2990         0.112939   
     66. A(O   3,H   7,O   6)          166.1473         0.211339   
     67. A(H   4,H   7,H   5)           41.8630         0.099666   
     68. A(O   6,H   7,H  13)           50.8439         0.132524   
     69. A(O   6,H   7,H  11)           64.3565         0.132777   
     70. A(O   3,H   7,H   5)           25.6839         0.115146   
     71. A(H  11,H   7,H  13)           75.9447         0.097566   
     72. A(H   4,H   7,H  11)           90.2440         0.098822   
     73. A(H   5,H   7,O   6)          149.6388         0.136536   
     74. A(H   5,H   7,H  11)           86.8776         0.098356   
     75. A(H  10,O   9,H  11)          103.3663         0.319192   
     76. A(H  11,O   9,H  16)           99.7776         0.201790   
     77. A(H  10,O   9,H  16)          103.4719         0.201706   
     78. A(O   0,H  10,H   1)           24.4821         0.107013   
     79. A(H   1,H  10,O   9)          142.3549         0.131081   
     80. A(O   0,H  10,O   9)          159.0703         0.187463   
     81. A(O   0,H  10,H  16)          119.9940         0.108239   
     82. A(O   9,H  10,H  16)           51.8857         0.133945   
     83. A(H   1,H  10,H  16)          132.4378         0.097222   
     84. A(H   7,H  11,O   9)          128.0085         0.133551   
     85. A(O   6,H  11,O   9)          152.2159         0.183017   
     86. A(O   9,H  11,H  16)           54.6408         0.135906   
     87. A(O   6,H  11,H  16)          111.7695         0.108144   
     88. A(H   7,H  11,H  16)           88.5715         0.098071   
     89. A(O   6,H  11,H   7)           25.8161         0.107182   
     90. A(H  13,O  12,H  14)          105.4616         0.319331   
     91. A(H   1,O  12,H  14)          119.5194         0.206803   
     92. A(H   1,O  12,H  13)           99.3928         0.205302   
     93. A(O   6,H  13,O  12)          160.9419         0.201561   
     94. A(H   1,H  13,O  12)           54.2470         0.137217   
     95. A(O   6,H  13,H   7)           24.8818         0.110784   
     96. A(H   1,H  13,H   7)           87.1910         0.098331   
     97. A(H   7,H  13,O  12)          139.0876         0.133007   
     98. A(H   1,H  13,O   6)          106.7159         0.112867   
     99. A(H  16,O  15,H  17)          106.2239         0.319310   
    100. A(H   5,O  15,H  17)          132.9334         0.199351   
    101. A(H   5,O  15,H  16)           95.0284         0.197757   
    102. A(H   5,H  16,O  15)           58.4368         0.136771   
    103. A(H  10,H  16,H  11)           39.7390         0.098158   
    104. A(O   9,H  16,H  11)           25.5816         0.111966   
    105. A(H   5,H  16,H  11)           88.2932         0.098799   
    106. A(H  11,H  16,O  15)          138.6152         0.135561   
    107. A(O   9,H  16,H  10)           24.6424         0.111022   
    108. A(H   5,H  16,H  10)           86.5092         0.098396   
    109. A(H  10,H  16,O  15)          142.5658         0.133647   
    110. A(H   5,H  16,O   9)          102.8661         0.112563   
    111. A(O   9,H  16,O  15)          160.7985         0.200959   
    112. D(H  13,H   1,O   0,H   4)     38.2361         0.382600   
    113. D(H  10,H   1,O   0,H   2)   -138.5912         0.382600   
    114. D(H  13,H   1,O   0,H   2)    173.7263         0.382600   
    115. D(O  12,H   1,O   0,H  10)    -44.4494         0.382600   
    116. D(O  12,H   1,O   0,H   4)     41.4693         0.382600   
    117. D(O  12,H   1,O   0,H   2)    176.9594         0.382600   
    118. D(H  10,H   1,O   0,H   4)     85.9186         0.382600   
    119. D(H  13,H   1,O   0,H  10)    -47.6825         0.382600   
    120. D(O   0,H   4,O   3,H   5)    -88.0836         0.358633   
    121. D(H   7,H   4,O   0,H   1)    -40.3714         0.001582   
    122. D(H   7,H   4,O   3,H   5)   -108.3245         0.358633   
    123. D(O   0,H   4,O   3,H   7)     20.2409         0.358633   
    124. D(O   3,H   4,O   0,H  10)     40.1989         0.001582   
    125. D(H   7,H   4,O   0,H   2)   -163.1930         0.001582   
    126. D(O   3,H   4,O   0,H   1)    -56.7337         0.001582   
    127. D(O   3,H   4,O   0,H   2)   -179.5553         0.001582   
    128. D(H   7,H   4,O   0,H  10)     56.5612         0.001582   
    129. D(H   7,H   5,O   3,H   4)    105.1792         0.373690   
    130. D(H  16,H   5,O   3,H   4)     61.5053         0.373690   
    131. D(O  15,H   5,O   3,H   4)     73.9324         0.373690   
    132. D(H  16,H   5,O   3,H   7)    -43.6739         0.373690   
    133. D(O  15,H   5,O   3,H   7)    -31.2469         0.373690   
    134. D(H   4,H   7,O   6,H  13)     37.2047         0.395198   
    135. D(H   4,H   7,O   3,H   5)    107.8298         0.002365   
    136. D(H  13,H   7,O   6,H  11)    -92.4930         0.395198   
    137. D(O   3,H   7,H   5,H  16)    149.4441         0.001523   
    138. D(O   3,H   7,O   6,H   8)   -171.2792         0.395198   
    139. D(O   3,H   7,O   6,H  11)    -38.2757         0.395198   
    140. D(H  11,H   7,O   3,H   5)     48.0566         0.002365   
    141. D(H   5,H   7,O   6,H   8)   -112.8945         0.395198   
    142. D(H  13,H   7,O   3,H   4)     22.2244         0.002365   
    143. D(H  11,H   7,H   5,O  15)     34.2878         0.001523   
    144. D(H  11,H   7,H   5,O   3)   -133.8533         0.001523   
    145. D(H   4,H   7,H   5,O   3)    -39.9963         0.001523   
    146. D(H   4,H   7,H   5,O  15)    128.1449         0.001523   
    147. D(O   6,H   7,O   3,H   5)     83.2867         0.002365   
    148. D(H  13,H   7,H   5,H  16)     82.5564         0.001523   
    149. D(H  13,H   7,O   3,H   5)    130.0542         0.002365   
    150. D(O   6,H   7,O   3,H   4)    -24.5431         0.002365   
    151. D(H  11,H   7,H   5,H  16)     15.5908         0.001523   
    152. D(O   6,H   7,H   5,O   3)   -151.9370         0.001523   
    153. D(H  11,H   7,H   4,O   0)    -47.7862         0.001533   
    154. D(H  13,H   7,H   4,O   3)   -160.8581         0.001533   
    155. D(H  13,H   7,O   6,H   8)    134.5035         0.395198   
    156. D(O   3,H   7,H   5,O  15)    168.1412         0.001523   
    157. D(H  13,H   7,H   5,O  15)    101.2535         0.001523   
    158. D(H  13,H   7,H   4,O   0)     28.1223         0.001533   
    159. D(H   5,H   7,H   4,O   3)     38.1884         0.001533   
    160. D(H   5,H   7,H   4,O   0)   -132.8312         0.001533   
    161. D(H   4,H   7,H   5,H  16)    109.4479         0.001523   
    162. D(H  11,H   7,H   4,O   3)    123.2333         0.001533   
    163. D(O   6,H   7,H   5,H  16)     -2.4928         0.001523   
    164. D(O   3,H   7,O   6,H  13)     54.2173         0.395198   
    165. D(O   6,H   7,H   5,O  15)     16.2042         0.001523   
    166. D(H  11,H   7,O   6,H  13)     92.4930         0.395198   
    167. D(H   5,H   7,O   3,H   4)   -107.8298         0.002365   
    168. D(H  11,H   7,O   3,H   4)    -59.7732         0.002365   
    169. D(H   4,H   7,O   6,H   8)    171.7082         0.395198   
    170. D(H  11,H   7,O   6,H   8)   -133.0035         0.395198   
    171. D(H   4,H   7,O   6,H  11)    -55.2883         0.395198   
    172. D(H   5,H   7,O   6,H  13)    112.6020         0.395198   
    173. D(O   6,H   7,H   4,O   3)    171.0558         0.001533   
    174. D(O   6,H   7,H   4,O   0)      0.0363         0.001533   
    175. D(H   5,H   7,O   6,H  11)     20.1090         0.395198   
    176. D(H  13,H   7,H   5,O   3)    -66.8877         0.001523   
    177. D(O   3,H   7,H   4,O   0)   -171.0195         0.001533   
    178. D(H   1,H  10,O   9,H  16)    112.7795         0.390518   
    179. D(H   1,H  10,O   9,H  11)      9.1046         0.390518   
    180. D(O   0,H  10,O   9,H  16)     74.1849         0.390518   
    181. D(O   0,H  10,O   9,H  11)    -29.4900         0.390518   
    182. D(H  16,H  10,H   1,H  13)     81.0366         0.001506   
    183. D(H  16,H  10,H   1,O  12)     98.9224         0.001506   
    184. D(H  16,H  10,H   1,O   0)    -68.0727         0.001506   
    185. D(O   0,H  10,H   1,H  13)    149.1093         0.001506   
    186. D(O   0,H  10,H   1,O  12)    166.9951         0.001506   
    187. D(O   9,H  10,H   1,O  12)     19.5238         0.001506   
    188. D(H  16,H  10,O   0,H   1)    127.7691         0.001597   
    189. D(H   1,H  10,O   0,H   4)   -103.0227         0.001597   
    190. D(H   1,H  10,O   0,H   2)    120.8181         0.001597   
    191. D(H  16,H  10,O   0,H   2)   -111.4129         0.001597   
    192. D(O   9,H  10,O   0,H   4)    -36.1869         0.001597   
    193. D(H  16,H  10,O   0,H   4)     24.7463         0.001597   
    194. D(O   9,H  10,O   0,H   2)   -172.3461         0.001597   
    195. D(O   9,H  10,O   0,H   1)     66.8358         0.001597   
    196. D(O   9,H  10,H   1,H  13)      1.6380         0.001506   
    197. D(H  16,H  10,O   9,H  11)   -103.6749         0.390518   
    198. D(O   9,H  10,H   1,O   0)   -147.4713         0.001506   
    199. D(H  16,H  11,O   9,H  10)    106.4949         0.393833   
    200. D(H   7,H  11,O   9,H  16)    -53.6042         0.393833   
    201. D(H   7,H  11,O   9,H  10)     52.8907         0.393833   
    202. D(O   6,H  11,O   9,H  10)     38.2838         0.393833   
    203. D(H  16,H  11,H   7,H   5)    -15.3627         0.001511   
    204. D(H  16,H  11,H   7,H   4)    -57.1100         0.001511   
    205. D(H  16,H  11,H   7,H  13)   -152.3883         0.001511   
    206. D(H  16,H  11,H   7,O   6)    154.6147         0.001511   
    207. D(O   6,H  11,H   7,H   5)   -169.9775         0.001511   
    208. D(O   6,H  11,H   7,H   4)    148.2752         0.001511   
    209. D(O   9,H  11,H   7,H   5)     25.6832         0.001511   
    210. D(O   9,H  11,H   7,H  13)   -111.3424         0.001511   
    211. D(O   9,H  11,H   7,O   6)   -164.3394         0.001511   
    212. D(H   7,H  11,O   6,H  13)   -104.2801         0.001564   
    213. D(H   7,H  11,O   6,H   8)    111.6151         0.001564   
    214. D(O   9,H  11,O   6,H  13)    -77.1329         0.001564   
    215. D(H  16,H  11,O   6,H   7)    -27.4827         0.001564   
    216. D(O   9,H  11,O   6,H   8)    138.7622         0.001564   
    217. D(H  16,H  11,H   7,O   3)    -34.1980         0.001511   
    218. D(O   9,H  11,O   6,H   7)     27.1472         0.001564   
    219. D(H  16,H  11,O   6,H   8)     84.1324         0.001564   
    220. D(O   9,H  11,H   7,O   3)      6.8478         0.001511   
    221. D(O   6,H  11,O   9,H  16)    -68.2111         0.393833   
    222. D(O   9,H  11,H   7,H   4)    -16.0642         0.001511   
    223. D(O   6,H  11,H   7,O   3)    171.1872         0.001511   
    224. D(O   6,H  11,H   7,H  13)     52.9970         0.001511   
    225. D(H  16,H  11,O   6,H  13)   -131.7628         0.001564   
    226. D(H  14,O  12,H   1,H  10)     70.0774         0.001924   
    227. D(H  14,O  12,H   1,H  13)    113.8402         0.001924   
    228. D(H  14,O  12,H   1,O   0)    108.7807         0.001924   
    229. D(H  13,O  12,H   1,H  10)    -43.7628         0.001924   
    230. D(H  13,O  12,H   1,O   0)     -5.0596         0.001924   
    231. D(H   7,H  13,H   1,O  12)    165.3865         0.001521   
    232. D(H   7,H  13,H   1,O   0)    -16.8213         0.001521   
    233. D(O   6,H  13,H   1,H  10)    -39.7498         0.001521   
    234. D(O   6,H  13,H   1,O  12)   -178.9957         0.001521   
    235. D(O   6,H  13,H   1,O   0)     -1.2035         0.001521   
    236. D(O  12,H  13,H   1,H  10)    139.2459         0.001521   
    237. D(H   7,H  13,H   1,H  10)    -55.3676         0.001521   
    238. D(O  12,H  13,H   1,O   0)    177.7922         0.001521   
    239. D(H   7,H  13,O  12,H   1)    -22.6300         0.365804   
    240. D(H   7,H  13,O  12,H  14)   -146.9575         0.365804   
    241. D(O   6,H  13,O  12,H   1)      2.9468         0.365804   
    242. D(H   1,H  13,O  12,H  14)   -124.3275         0.365804   
    243. D(O   6,H  13,H   7,H  11)    -68.1941         0.001511   
    244. D(O   6,H  13,H   7,H   5)   -139.5036         0.001511   
    245. D(O   6,H  13,H   7,H   4)   -157.1464         0.001511   
    246. D(O   6,H  13,H   7,O   3)   -166.9994         0.001511   
    247. D(H   1,H  13,H   7,H  11)     74.0124         0.001511   
    248. D(H   1,H  13,H   7,H   5)      2.7028         0.001511   
    249. D(H   1,H  13,H   7,H   4)    -14.9400         0.001511   
    250. D(H   1,H  13,H   7,O   3)    -24.7930         0.001511   
    251. D(H   1,H  13,H   7,O   6)    142.2064         0.001511   
    252. D(O  12,H  13,H   7,H  11)     92.2308         0.001511   
    253. D(O  12,H  13,H   7,H   5)     20.9213         0.001511   
    254. D(O  12,H  13,H   7,H   4)      3.2785         0.001511   
    255. D(O  12,H  13,H   7,O   3)     -6.5745         0.001511   
    256. D(O  12,H  13,H   7,O   6)    160.4249         0.001511   
    257. D(H   7,H  13,O   6,H  11)     90.4476         0.001839   
    258. D(H   7,H  13,O   6,H   8)   -122.5732         0.001839   
    259. D(H   1,H  13,O   6,H  11)     50.7237         0.001839   
    260. D(H   1,H  13,O   6,H   8)   -162.2971         0.001839   
    261. D(O   6,H  13,O  12,H  14)   -121.3807         0.365804   
    262. D(H   1,H  13,O   6,H   7)    -39.7239         0.001839   
    263. D(O  12,H  13,O   6,H  11)     48.2271         0.001839   
    264. D(O  12,H  13,O   6,H   8)   -164.7938         0.001839   
    265. D(O  12,H  13,O   6,H   7)    -42.2205         0.001839   
    266. D(H  17,O  15,H   5,H  16)   -117.7064         0.001732   
    267. D(H  17,O  15,H   5,H   7)   -163.5248         0.001732   
    268. D(H  17,O  15,H   5,O   3)   -138.4640         0.001732   
    269. D(H  16,O  15,H   5,H   7)    -45.8184         0.001732   
    270. D(H  16,O  15,H   5,O   3)    -20.7576         0.001732   
    271. D(H  11,H  16,O  15,H   5)     41.4049         0.390563   
    272. D(H  11,H  16,O  15,H  17)    178.9443         0.390563   
    273. D(H  10,H  16,O  15,H  17)    114.4750         0.390563   
    274. D(O   9,H  16,O  15,H   5)     14.2252         0.390563   
    275. D(O   9,H  16,O  15,H  17)    151.7646         0.390563   
    276. D(H  10,H  16,H  11,H   7)    101.8932         0.001517   
    277. D(H  10,H  16,H  11,O   6)    113.4904         0.001517   
    278. D(H  10,H  16,H  11,O   9)    -38.7296         0.001517   
    279. D(O   9,H  16,H  11,H   7)    140.6228         0.001517   
    280. D(O   9,H  16,H  11,O   6)    152.2200         0.001517   
    281. D(H   5,H  16,H  11,H   7)     15.3011         0.001517   
    282. D(H   5,H  16,H  11,O   6)     26.8983         0.001517   
    283. D(O  15,H  16,H  11,H   7)    -19.0168         0.001517   
    284. D(O  15,H  16,H  11,O   6)     -7.4196         0.001517   
    285. D(O  15,H  16,H  11,O   9)   -159.6396         0.001517   
    286. D(H  11,H  16,H  10,O   0)   -116.2340         0.001511   
    287. D(H  11,H  16,H  10,O   9)     40.3848         0.001511   
    288. D(O   9,H  16,H  10,H   1)   -130.2674         0.001511   
    289. D(O   9,H  16,H  10,O   0)   -156.6188         0.001511   
    290. D(H   5,H  16,H  10,H   1)      1.6473         0.001511   
    291. D(H   5,H  16,H  10,O   0)    -24.7041         0.001511   
    292. D(H   5,H  16,H  10,O   9)    131.9147         0.001511   
    293. D(O  15,H  16,H  10,H   1)     21.1851         0.001511   
    294. D(O  15,H  16,H  10,O   0)     -5.1663         0.001511   
    295. D(O  15,H  16,H  10,O   9)    151.4525         0.001511   
    296. D(H  11,H  16,O   9,H  10)   -106.4096         0.001826   
    297. D(H  11,H  16,H  10,H   1)    -89.8826         0.001511   
    298. D(H  10,H  16,O   9,H  11)    106.4096         0.001826   
    299. D(H   5,H  16,O   9,H  11)     56.7787         0.001826   
    300. D(H   5,H  16,O   9,H  10)    -49.6310         0.001826   
    301. D(H   5,H  16,H  11,O   9)   -125.3217         0.001517   
    302. D(O  15,H  16,O   9,H  11)     44.3765         0.001826   
    303. D(O  15,H  16,O   9,H  10)    -62.0332         0.001826   
    304. D(H  11,H  16,H   5,O  15)   -154.0594         0.001521   
    305. D(H  11,H  16,H   5,H   7)    -16.0232         0.001521   
    306. D(H  11,H  16,H   5,O   3)     15.6973         0.001521   
    307. D(H  10,H  16,H   5,O  15)    166.1975         0.001521   
    308. D(H  10,H  16,H   5,H   7)    -55.7663         0.001521   
    309. D(H   5,H  16,O  15,H  17)    137.5394         0.390563   
    310. D(H  10,H  16,H   5,O   3)    -24.0459         0.001521   
    311. D(O   9,H  16,H   5,O  15)   -175.2447         0.001521   
    312. D(O   9,H  16,H   5,H   7)    -37.2084         0.001521   
    313. D(H  10,H  16,O  15,H   5)    -23.0643         0.390563   
    314. D(O   9,H  16,H   5,O   3)     -5.4880         0.001521   
    315. D(O  15,H  16,H   5,H   7)    138.0362         0.001521   
    316. D(O  15,H  16,H   5,O   3)    169.7567         0.001521   
    -----------------------------------------------------------------

Number of atoms                         .... 18
Number of degrees of freedom            .... 316

         *************************************************************
         *                GEOMETRY OPTIMIZATION CYCLE   1            *
         *************************************************************
---------------------------------
CARTESIAN COORDINATES (ANGSTROEM)
---------------------------------
  O      0.862065   -1.728538   -0.448765
  H      1.679686   -1.216793   -0.290371
  H      1.141594   -2.607406   -0.709910
  O     -0.751083    0.359939   -1.648316
  H     -0.283702   -0.473988   -1.502279
  H     -1.624922    0.215720   -1.247934
  O      0.590537    1.756310    0.198185
  H      0.069166    1.374794   -0.548651
  H      0.493944    2.707937    0.134574
  O     -0.675492   -0.446436    1.665684
  H     -0.188802   -1.063799    1.102054
  H     -0.260662    0.405216    1.474464
  O      2.803582    0.112403    0.084677
  H      2.165098    0.844551    0.158067
  H      3.282044    0.106258    0.915526
  O     -2.901034    0.010949    0.089937
  H     -2.258917   -0.224605    0.785219
  H     -3.643112   -0.584893    0.198028

----------------------------
CARTESIAN COORDINATES (A.U.)
----------------------------
  NO LB      ZA    FRAG     MASS         X           Y           Z
   0 O     8.0000    0    15.999    1.629067   -3.266463   -0.848043
   1 H     1.0000    0     1.008    3.174147   -2.299406   -0.548722
   2 H     1.0000    0     1.008    2.157300   -4.927283   -1.341535
   3 O     8.0000    0    15.999   -1.419341    0.680186   -3.114866
   4 H     1.0000    0     1.008   -0.536119   -0.895708   -2.838896
   5 H     1.0000    0     1.008   -3.070658    0.407652   -2.358253
   6 O     8.0000    0    15.999    1.115953    3.318945    0.374515
   7 H     1.0000    0     1.008    0.130705    2.597984   -1.036800
   8 H     1.0000    0     1.008    0.933419    5.117259    0.254308
   9 O     8.0000    0    15.999   -1.276495   -0.843642    3.147687
  10 H     1.0000    0     1.008   -0.356784   -2.010289    2.082580
  11 H     1.0000    0     1.008   -0.492580    0.765747    2.786333
  12 O     8.0000    0    15.999    5.298002    0.212411    0.160016
  13 H     1.0000    0     1.008    4.091442    1.595970    0.298703
  14 H     1.0000    0     1.008    6.202164    0.200799    1.730093
  15 O     8.0000    0    15.999   -5.482160    0.020691    0.169956
  16 H     1.0000    0     1.008   -4.268734   -0.424442    1.483849
  17 H     1.0000    0     1.008   -6.884484   -1.105288    0.374219

--------------------------------
INTERNAL COORDINATES (ANGSTROEM)
--------------------------------
 O      0   0   0     0.000000000000     0.00000000     0.00000000
 H      1   0   0     0.977484375273     0.00000000     0.00000000
 H      1   2   0     0.958510372552   106.27493477     0.00000000
 O      1   2   3     2.898776509328    98.93693428   217.36379635
 H      4   1   2     0.967060518199    17.68774027   124.66962170
 H      4   1   2     0.971956513331   102.88229172   220.86105108
 O      4   1   2     2.675698439107    79.12826050   323.03614401
 H      7   4   1     0.987494905705     8.78327180   161.28394938
 H      7   4   1     0.958629497824   114.94475867   170.52118116
 O      1   2   3     2.911831320708    95.36473628   144.88244721
 H     10   1   2     0.967307090209    14.11441329   246.09798043
 H     10   1   2     0.966416135215    91.01309885    37.47709467
 O      2   1   3     1.780608106108   162.34472926   176.95939705
 H     13   2   1     0.974211786143    99.39275309   354.94041717
 H     13   2   1     0.958787623653   119.51943813   108.78066515
 O      6   4   1     1.860185961571   158.33582154    55.78272716
 H     16   6   4     0.975303536408    95.02843990   339.24242281
 H     16   6   4     0.957805361923   132.93336833   221.53603047

---------------------------
INTERNAL COORDINATES (A.U.)
---------------------------
 O      0   0   0     0.000000000000     0.00000000     0.00000000
 H      1   0   0     1.847177769452     0.00000000     0.00000000
 H      1   2   0     1.811322100646   106.27493477     0.00000000
 O      1   2   3     5.477893726075    98.93693428   217.36379635
 H      4   1   2     1.827479534324    17.68774027   124.66962170
 H      4   1   2     1.836731624276   102.88229172   220.86105108
 O      4   1   2     5.056337266874    79.12826050   323.03614401
 H      7   4   1     1.866094930425     8.78327180   161.28394938
 H      7   4   1     1.811547214787   114.94475867   170.52118116
 O      1   2   3     5.502563744312    95.36473628   144.88244721
 H     10   1   2     1.827945487896    14.11441329   246.09798043
 H     10   1   2     1.826261826959    91.01309885    37.47709467
 O      2   1   3     3.364861672384   162.34472926   176.95939705
 H     13   2   1     1.840993472249    99.39275309   354.94041717
 H     13   2   1     1.811846029297   119.51943813   108.78066515
 O      6   4   1     3.515242025534   158.33582154    55.78272716
 H     16   6   4     1.843056581255    95.02843990   339.24242281
 H     16   6   4     1.809989823636   132.93336833   221.53603047

---------------------
BASIS SET INFORMATION
---------------------
There are 2 groups of distinct atoms

 Group   1 Type O   : 19s6p3d2f contracted to 5s4p3d2f pattern {88111/3111/111/11}
 Group   2 Type H   : 6s3p2d contracted to 4s3p2d pattern {3111/111/11}

Atom   0O    basis set group =>   1
Atom   1H    basis set group =>   2
Atom   2H    basis set group =>   2
Atom   3O    basis set group =>   1
Atom   4H    basis set group =>   2
Atom   5H    basis set group =>   2
Atom   6O    basis set group =>   1
Atom   7H    basis set group =>   2
Atom   8H    basis set group =>   2
Atom   9O    basis set group =>   1
Atom  10H    basis set group =>   2
Atom  11H    basis set group =>   2
Atom  12O    basis set group =>   1
Atom  13H    basis set group =>   2
Atom  14H    basis set group =>   2
Atom  15O    basis set group =>   1
Atom  16H    basis set group =>   2
Atom  17H    basis set group =>   2
---------------------------------
AUXILIARY/J BASIS SET INFORMATION
---------------------------------
There are 2 groups of distinct atoms

 Group   1 Type O   : 12s5p4d2f1g contracted to 6s4p3d1f1g pattern {711111/2111/211/2/1}
 Group   2 Type H   : 5s2p1d contracted to 3s1p1d pattern {311/2/1}

Atom   0O    basis set group =>   1
Atom   1H    basis set group =>   2
Atom   2H    basis set group =>   2
Atom   3O    basis set group =>   1
Atom   4H    basis set group =>   2
Atom   5H    basis set group =>   2
Atom   6O    basis set group =>   1
Atom   7H    basis set group =>   2
Atom   8H    basis set group =>   2
Atom   9O    basis set group =>   1
Atom  10H    basis set group =>   2
Atom  11H    basis set group =>   2
Atom  12O    basis set group =>   1
Atom  13H    basis set group =>   2
Atom  14H    basis set group =>   2
Atom  15O    basis set group =>   1
Atom  16H    basis set group =>   2
Atom  17H    basis set group =>   2


           ************************************************************
           *        Program running with 24 parallel MPI-processes    *
           *              working on a common directory               *
           ************************************************************
------------------------------------------------------------------------------
                           ORCA GTO INTEGRAL CALCULATION
                           -- RI-GTO INTEGRALS CHOSEN --
------------------------------------------------------------------------------

                         BASIS SET STATISTICS AND STARTUP INFO

Gaussian basis set:
 # of primitive gaussian shells          ...  312
 # of primitive gaussian functions       ...  696
 # of contracted shells                  ...  192
 # of contracted basis functions         ...  552
 Highest angular momentum                ...    3
 Maximum contraction depth               ...    8
Auxiliary gaussian basis set:
 # of primitive gaussian shells          ...  240
 # of primitive gaussian functions       ...  612
 # of contracted shells                  ...  150
 # of contracted aux-basis functions     ...  426
 Highest angular momentum                ...    4
 Maximum contraction depth               ...    7
Ratio of auxiliary to basis functions    ...  0.77
Integral package used                  ... LIBINT
 One Electron integrals                  ... done
 Ordering auxiliary basis shells         ... done
 Integral threshhold             Thresh  ...  2.500e-11
 Primitive cut-off               TCut    ...  2.500e-12
 Pre-screening matrix                    ... done
 Shell pair data                         ... 
 Ordering of the shell pairs             ... done (   0.003 sec) 17560 of 18528 pairs
 Determination of significant pairs      ... done (   0.000 sec)
 Creation of shell pair data             ... done (   0.002 sec)
 Storage of shell pair data              ... done (   0.015 sec)
 Shell pair data done in (   0.021 sec)
 Computing two index integrals           ... done
 Cholesky decomposition of the V-matrix  ... done


Timings:
 Total evaluation time                   ...   0.511 sec (  0.009 min)
 One electron matrix time                ...   0.165 sec (  0.003 min) = 32.3%
 Schwartz matrix evaluation time         ...   0.235 sec (  0.004 min) = 45.9%
 Two index repulsion integral time       ...   0.004 sec (  0.000 min) =  0.8%
 Cholesky decomposition of V             ...   0.056 sec (  0.001 min) = 10.9%
 Three index repulsion integral time     ...   0.000 sec (  0.000 min) =  0.0%



           ************************************************************
           *        Program running with 24 parallel MPI-processes    *
           *              working on a common directory               *
           ************************************************************
-------------------------------------------------------------------------------
                                 ORCA SCF
-------------------------------------------------------------------------------

------------
SCF SETTINGS
------------
Hamiltonian:
 Density Functional     Method          .... DFT(GTOs)
 Exchange Functional    Exchange        .... TPSS
 Correlation Functional Correlation     .... TPSS
 LDA part of GGA corr.  LDAOpt          .... PW91-LDA
 Gradients option       PostSCFGGA      .... off
   Density functional embedding theory  .... OFF
   NL short-range parameter             ....  5.000000
 RI-approximation to the Coulomb term is turned on
   Number of auxiliary basis functions  .... 426


General Settings:
 Integral files         IntName         .... 08_H2O_6_cage
 Hartree-Fock type      HFTyp           .... RHF
 Total Charge           Charge          ....    0
 Multiplicity           Mult            ....    1
 Number of Electrons    NEL             ....   60
 Basis Dimension        Dim             ....  552
 Nuclear Repulsion      ENuc            ....    300.0964983793 Eh

Convergence Acceleration:
 DIIS                   CNVDIIS         .... on
   Start iteration      DIISMaxIt       ....    12
   Startup error        DIISStart       ....  0.200000
   # of expansion vecs  DIISMaxEq       ....     5
   Bias factor          DIISBfac        ....   1.050
   Max. coefficient     DIISMaxC        ....  10.000
 Newton-Raphson         CNVNR           .... off
 SOSCF                  CNVSOSCF        .... on
   Start iteration      SOSCFMaxIt      ....   150
   Startup grad/error   SOSCFStart      ....  0.003300
 Level Shifting         CNVShift        .... on
   Level shift para.    LevelShift      ....    0.2500
   Turn off err/grad.   ShiftErr        ....    0.0010
 Zerner damping         CNVZerner       .... off
 Static damping         CNVDamp         .... on
   Fraction old density DampFac         ....    0.7000
   Max. Damping (<1)    DampMax         ....    0.9800
   Min. Damping (>=0)   DampMin         ....    0.0000
   Turn off err/grad.   DampErr         ....    0.1000
 Fernandez-Rico         CNVRico         .... off

SCF Procedure:
 Maximum # iterations   MaxIter         ....   125
 SCF integral mode      SCFMode         .... Direct
   Integral package                     .... LIBINT
 Reset frequency        DirectResetFreq ....    20
 Integral Threshold     Thresh          ....  2.500e-11 Eh
 Primitive CutOff       TCut            ....  2.500e-12 Eh

Convergence Tolerance:
 Convergence Check Mode ConvCheckMode   .... Total+1el-Energy
 Convergence forced     ConvForced      .... 0
 Energy Change          TolE            ....  1.000e-08 Eh
 1-El. energy change                    ....  1.000e-05 Eh
 Orbital Gradient       TolG            ....  1.000e-05
 Orbital Rotation angle TolX            ....  1.000e-05
 DIIS Error             TolErr          ....  5.000e-07


Diagonalization of the overlap matrix:
Smallest eigenvalue                        ... 3.507e-05
Time for diagonalization                   ...    0.045 sec
Threshold for overlap eigenvalues          ... 1.000e-08
Number of eigenvalues below threshold      ... 0
Time for construction of square roots      ...    0.048 sec
Total time needed                          ...    0.095 sec

-------------------
DFT GRID GENERATION
-------------------

General Integration Accuracy     IntAcc      ...  4.670
Radial Grid Type                 RadialGrid  ... Gauss-Chebyshev
Angular Grid (max. acc.)         AngularGrid ... Lebedev-302
Angular grid pruning method      GridPruning ... 3 (G Style)
Weight generation scheme         WeightScheme... Becke
Basis function cutoff            BFCut       ...    1.0000e-11
Integration weight cutoff        WCut        ...    1.0000e-14
Grids for H and He will be reduced by one unit

# of grid points (after initial pruning)     ...  78000 (   0.0 sec)
# of grid points (after weights+screening)   ...  71821 (   0.0 sec)
nearest neighbour list constructed           ...    0.0 sec
Grid point re-assignment to atoms done       ...    0.0 sec
Grid point division into batches done        ...    0.2 sec
Reduced shell lists constructed in    0.3 sec

Total number of grid points                  ...    71821
Total number of batches                      ...     1132
Average number of points per batch           ...       63
Average number of grid points per atom       ...     3990
Average number of shells per batch           ...   145.08 (75.56%)
Average number of basis functions per batch  ...   406.39 (73.62%)
Average number of large shells per batch     ...   117.55 (81.02%)
Average number of large basis fcns per batch ...   321.27 (79.05%)
Maximum spatial batch extension              ...   2.85,  2.34,  2.33 au
Average spatial batch extension              ...   0.04,  0.04,  0.04 au

Time for grid setup =    0.386 sec

------------------------------
INITIAL GUESS: MODEL POTENTIAL
------------------------------
Loading Hartree-Fock densities                     ... done
Calculating cut-offs                               ... done
Setting up the integral package                    ... done
Initializing the effective Hamiltonian             ... done
Starting the Coulomb interaction                   ... done (   0.0 sec)
Reading the grid                                   ... done
Mapping shells                                     ... done
Starting the XC term evaluation                    ... done (   0.2 sec)
  promolecular density results
     # of electrons  =     59.993214953
     EX              =    -52.455022871
     EC              =     -1.948911673
     EX+EC           =    -54.403934544
Transforming the Hamiltonian                       ... done (   0.0 sec)
Diagonalizing the Hamiltonian                      ... done (   0.0 sec)
Back transforming the eigenvectors                 ... done (   0.0 sec)
Now organizing SCF variables                       ... done
                      ------------------
                      INITIAL GUESS DONE (   0.8 sec)
                      ------------------
--------------
SCF ITERATIONS
--------------
ITER       Energy         Delta-E        Max-DP      RMS-DP      [F,P]     Damp
               ***  Starting incremental Fock matrix formation  ***
  0   -458.4244991212   0.000000000000 0.10688919  0.00112188  0.3198088 0.7000
  1   -458.6532121175  -0.228712996309 0.04951881  0.00062830  0.1111857 0.7000
                               ***Turning on DIIS***
  2   -458.7169419134  -0.063729795923 0.06217314  0.00077354  0.0252773 0.0000
  3   -458.8448282467  -0.127886333302 0.02034300  0.00027257  0.0662108 0.0000
  4   -458.8658552234  -0.021026976627 0.00444228  0.00006586  0.0142131 0.0000
  5   -458.8669417825  -0.001086559127 0.00279737  0.00003094  0.0046368 0.0000
                      *** Initiating the SOSCF procedure ***
                           *** Shutting down DIIS ***
                      *** Re-Reading the Fockian *** 
                      *** Removing any level shift *** 
ITER      Energy       Delta-E        Grad      Rot      Max-DP    RMS-DP
  6   -458.86701364  -0.0000718586  0.000333  0.000333  0.001878  0.000018
               *** Restarting incremental Fock matrix formation ***
  7   -458.86703199  -0.0000183466  0.000135  0.000485  0.001493  0.000014
  8   -458.86703305  -0.0000010622  0.000062  0.000062  0.000509  0.000006
  9   -458.86703327  -0.0000002244  0.000035  0.000108  0.000437  0.000004
 10   -458.86703350  -0.0000002228  0.000005  0.000008  0.000021  0.000000
 11   -458.86703349   0.0000000028  0.000005  0.000007  0.000024  0.000000
 12   -458.86703351  -0.0000000122  0.000003  0.000003  0.000030  0.000000
                  ***Gradient check signals convergence***
              ***Rediagonalizing the Fockian in SOSCF/NRSCF***

               *****************************************************
               *                     SUCCESS                       *
               *           SCF CONVERGED AFTER  13 CYCLES          *
               *****************************************************


----------------
TOTAL SCF ENERGY
----------------

Total Energy       :         -458.86703351 Eh          -12486.40678 eV

Components:
Nuclear Repulsion  :          300.09649838 Eh            8166.04087 eV
Electronic Energy  :         -758.96353189 Eh          -20652.44765 eV
One Electron Energy:        -1228.13166970 Eh          -33419.16173 eV
Two Electron Energy:          469.16813782 Eh           12766.71408 eV

Virial components:
Potential Energy   :         -915.63155479 Eh          -24915.60129 eV
Kinetic Energy     :          456.76452128 Eh           12429.19451 eV
Virial Ratio       :            2.00460306


DFT components:
N(Alpha)           :       29.999842694861 electrons
N(Beta)            :       29.999842694861 electrons
N(Total)           :       59.999685389723 electrons
E(X)               :      -54.095101379966 Eh       
E(C)               :       -1.996781141022 Eh       
E(XC)              :      -56.091882520987 Eh       
DFET-embed. en.    :        0.000000000000 Eh       

---------------
SCF CONVERGENCE
---------------

  Last Energy change         ...   -5.2808e-10  Tolerance :   1.0000e-08
  Last MAX-Density change    ...    1.3656e-05  Tolerance :   1.0000e-07
  Last RMS-Density change    ...    1.4237e-07  Tolerance :   5.0000e-09
  Last Orbital Gradient      ...    1.8456e-06  Tolerance :   1.0000e-05
  Last Orbital Rotation      ...    1.8217e-06  Tolerance :   1.0000e-05

             **** THE GBW FILE WAS UPDATED (08_H2O_6_cage.gbw) ****
             **** DENSITY FILE WAS UPDATED (08_H2O_6_cage.scfp) ****
             **** ENERGY FILE WAS UPDATED (08_H2O_6_cage.en.tmp) ****
             **** THE GBW FILE WAS UPDATED (08_H2O_6_cage.gbw) ****
             **** DENSITY FILE WAS UPDATED (08_H2O_6_cage.scfp) ****
----------------
ORBITAL ENERGIES
----------------

  NO   OCC          E(Eh)            E(eV) 
   0   2.0000     -18.900799      -514.3169 
   1   2.0000     -18.896693      -514.2052 
   2   2.0000     -18.896401      -514.1972 
   3   2.0000     -18.877891      -513.6935 
   4   2.0000     -18.876105      -513.6449 
   5   2.0000     -18.872825      -513.5557 
   6   2.0000      -0.970197       -26.4004 
   7   2.0000      -0.959875       -26.1195 
   8   2.0000      -0.954086       -25.9620 
   9   2.0000      -0.944935       -25.7130 
  10   2.0000      -0.936681       -25.4884 
  11   2.0000      -0.929002       -25.2794 
  12   2.0000      -0.512259       -13.9393 
  13   2.0000      -0.500744       -13.6259 
  14   2.0000      -0.490943       -13.3592 
  15   2.0000      -0.485913       -13.2224 
  16   2.0000      -0.472062       -12.8455 
  17   2.0000      -0.468022       -12.7355 
  18   2.0000      -0.393951       -10.7200 
  19   2.0000      -0.367252        -9.9934 
  20   2.0000      -0.359930        -9.7942 
  21   2.0000      -0.343364        -9.3434 
  22   2.0000      -0.341635        -9.2964 
  23   2.0000      -0.320207        -8.7133 
  24   2.0000      -0.288207        -7.8425 
  25   2.0000      -0.285619        -7.7721 
  26   2.0000      -0.280905        -7.6438 
  27   2.0000      -0.268495        -7.3061 
  28   2.0000      -0.260607        -7.0915 
  29   2.0000      -0.258361        -7.0304 
  30   0.0000      -0.037833        -1.0295 
  31   0.0000      -0.013637        -0.3711 
  32   0.0000      -0.011786        -0.3207 
  33   0.0000       0.001620         0.0441 
  34   0.0000       0.019341         0.5263 
  35   0.0000       0.032980         0.8974 
  36   0.0000       0.035100         0.9551 
  37   0.0000       0.039846         1.0843 
  38   0.0000       0.040337         1.0976 
  39   0.0000       0.055505         1.5104 
  40   0.0000       0.060930         1.6580 
  41   0.0000       0.066534         1.8105 
  42   0.0000       0.066804         1.8178 
  43   0.0000       0.079134         2.1534 
  44   0.0000       0.084200         2.2912 
  45   0.0000       0.090608         2.4656 
  46   0.0000       0.104506         2.8437 
  47   0.0000       0.108661         2.9568 
  48   0.0000       0.110619         3.0101 
  49   0.0000       0.118096         3.2135 
  50   0.0000       0.119283         3.2459 
  51   0.0000       0.122043         3.3210 
  52   0.0000       0.129472         3.5231 
  53   0.0000       0.138144         3.7591 
  54   0.0000       0.144862         3.9419 
  55   0.0000       0.145328         3.9546 
  56   0.0000       0.148623         4.0442 
  57   0.0000       0.150669         4.0999 
  58   0.0000       0.156069         4.2468 
  59   0.0000       0.158803         4.3213 
  60   0.0000       0.160645         4.3714 
  61   0.0000       0.179155         4.8750 
  62   0.0000       0.180006         4.8982 
  63   0.0000       0.182547         4.9674 
  64   0.0000       0.190037         5.1712 
  65   0.0000       0.194678         5.2975 
  66   0.0000       0.201476         5.4824 
  67   0.0000       0.203191         5.5291 
  68   0.0000       0.206894         5.6299 
  69   0.0000       0.216007         5.8779 
  70   0.0000       0.219021         5.9599 
  71   0.0000       0.233279         6.3478 
  72   0.0000       0.237572         6.4647 
  73   0.0000       0.245586         6.6827 
  74   0.0000       0.250320         6.8115 
  75   0.0000       0.257298         7.0014 
  76   0.0000       0.263949         7.1824 
  77   0.0000       0.282161         7.6780 
  78   0.0000       0.284495         7.7415 
  79   0.0000       0.289785         7.8855 
  80   0.0000       0.295398         8.0382 
  81   0.0000       0.302114         8.2209 
  82   0.0000       0.314006         8.5445 
  83   0.0000       0.317116         8.6292 
  84   0.0000       0.319289         8.6883 
  85   0.0000       0.327526         8.9124 
  86   0.0000       0.331916         9.0319 
  87   0.0000       0.336198         9.1484 
  88   0.0000       0.339651         9.2424 
  89   0.0000       0.343068         9.3353 
  90   0.0000       0.349185         9.5018 
  91   0.0000       0.352674         9.5967 
  92   0.0000       0.354844         9.6558 
  93   0.0000       0.363558         9.8929 
  94   0.0000       0.367386         9.9971 
  95   0.0000       0.372930        10.1479 
  96   0.0000       0.379352        10.3227 
  97   0.0000       0.385606        10.4929 
  98   0.0000       0.390867        10.6360 
  99   0.0000       0.401511        10.9257 
 100   0.0000       0.410774        11.1777 
 101   0.0000       0.415008        11.2929 
 102   0.0000       0.422983        11.5099 
 103   0.0000       0.424368        11.5477 
 104   0.0000       0.429839        11.6965 
 105   0.0000       0.436909        11.8889 
 106   0.0000       0.447848        12.1866 
 107   0.0000       0.461306        12.5528 
 108   0.0000       0.464664        12.6442 
 109   0.0000       0.476692        12.9714 
 110   0.0000       0.481150        13.0928 
 111   0.0000       0.494605        13.4589 
 112   0.0000       0.499973        13.6050 
 113   0.0000       0.504348        13.7240 
 114   0.0000       0.520991        14.1769 
 115   0.0000       0.537984        14.6393 
 116   0.0000       0.548837        14.9346 
 117   0.0000       0.554831        15.0977 
 118   0.0000       0.561472        15.2784 
 119   0.0000       0.564265        15.3544 
 120   0.0000       0.576559        15.6890 
 121   0.0000       0.588786        16.0217 
 122   0.0000       0.599949        16.3254 
 123   0.0000       0.605266        16.4701 
 124   0.0000       0.614448        16.7200 
 125   0.0000       0.619107        16.8468 
 126   0.0000       0.634378        17.2623 
 127   0.0000       0.638697        17.3798 
 128   0.0000       0.641037        17.4435 
 129   0.0000       0.646001        17.5786 
 130   0.0000       0.665283        18.1033 
 131   0.0000       0.670404        18.2426 
 132   0.0000       0.676105        18.3978 
 133   0.0000       0.687598        18.7105 
 134   0.0000       0.692537        18.8449 
 135   0.0000       0.696039        18.9402 
 136   0.0000       0.714249        19.4357 
 137   0.0000       0.721417        19.6308 
 138   0.0000       0.724703        19.7202 
 139   0.0000       0.735766        20.0212 
 140   0.0000       0.742289        20.1987 
 141   0.0000       0.750983        20.4353 
 142   0.0000       0.755417        20.5559 
 143   0.0000       0.769480        20.9386 
 144   0.0000       0.774301        21.0698 
 145   0.0000       0.779231        21.2040 
 146   0.0000       0.783462        21.3191 
 147   0.0000       0.794780        21.6271 
 148   0.0000       0.797706        21.7067 
 149   0.0000       0.808214        21.9926 
 150   0.0000       0.814506        22.1638 
 151   0.0000       0.817175        22.2365 
 152   0.0000       0.828022        22.5316 
 153   0.0000       0.833365        22.6770 
 154   0.0000       0.836425        22.7603 
 155   0.0000       0.839268        22.8376 
 156   0.0000       0.851829        23.1794 
 157   0.0000       0.856835        23.3157 
 158   0.0000       0.875022        23.8105 
 159   0.0000       0.880460        23.9585 
 160   0.0000       0.882131        24.0040 
 161   0.0000       0.886502        24.1229 
 162   0.0000       0.895607        24.3707 
 163   0.0000       0.905241        24.6329 
 164   0.0000       0.909918        24.7601 
 165   0.0000       0.922926        25.1141 
 166   0.0000       0.928253        25.2591 
 167   0.0000       0.936860        25.4933 
 168   0.0000       0.954428        25.9713 
 169   0.0000       0.956169        26.0187 
 170   0.0000       0.967077        26.3155 
 171   0.0000       0.977100        26.5883 
 172   0.0000       0.985842        26.8261 
 173   0.0000       0.987256        26.8646 
 174   0.0000       1.001080        27.2408 
 175   0.0000       1.003538        27.3077 
 176   0.0000       1.010274        27.4909 
 177   0.0000       1.021108        27.7858 
 178   0.0000       1.024710        27.8838 
 179   0.0000       1.029571        28.0160 
 180   0.0000       1.040107        28.3027 
 181   0.0000       1.043860        28.4049 
 182   0.0000       1.055352        28.7176 
 183   0.0000       1.059427        28.8285 
 184   0.0000       1.073651        29.2155 
 185   0.0000       1.076258        29.2865 
 186   0.0000       1.083098        29.4726 
 187   0.0000       1.087543        29.5936 
 188   0.0000       1.092487        29.7281 
 189   0.0000       1.099506        29.9191 
 190   0.0000       1.107934        30.1484 
 191   0.0000       1.116374        30.3781 
 192   0.0000       1.125317        30.6214 
 193   0.0000       1.126389        30.6506 
 194   0.0000       1.137626        30.9564 
 195   0.0000       1.144857        31.1531 
 196   0.0000       1.157308        31.4919 
 197   0.0000       1.162415        31.6309 
 198   0.0000       1.172456        31.9041 
 199   0.0000       1.182906        32.1885 
 200   0.0000       1.202549        32.7230 
 201   0.0000       1.206040        32.8180 
 202   0.0000       1.220021        33.1985 
 203   0.0000       1.220608        33.2144 
 204   0.0000       1.231192        33.5024 
 205   0.0000       1.232247        33.5311 
 206   0.0000       1.247532        33.9471 
 207   0.0000       1.259701        34.2782 
 208   0.0000       1.281695        34.8767 
 209   0.0000       1.286044        34.9950 
 210   0.0000       1.304457        35.4961 
 211   0.0000       1.312991        35.7283 
 212   0.0000       1.316000        35.8102 
 213   0.0000       1.319432        35.9036 
 214   0.0000       1.330276        36.1987 
 215   0.0000       1.347584        36.6696 
 216   0.0000       1.360024        37.0081 
 217   0.0000       1.370345        37.2890 
 218   0.0000       1.387077        37.7443 
 219   0.0000       1.398169        38.0461 
 220   0.0000       1.408115        38.3168 
 221   0.0000       1.425766        38.7971 
 222   0.0000       1.430029        38.9131 
 223   0.0000       1.438943        39.1556 
 224   0.0000       1.449047        39.4306 
 225   0.0000       1.457958        39.6731 
 226   0.0000       1.467298        39.9272 
 227   0.0000       1.475164        40.1413 
 228   0.0000       1.481543        40.3148 
 229   0.0000       1.482765        40.3481 
 230   0.0000       1.501947        40.8701 
 231   0.0000       1.510471        41.1020 
 232   0.0000       1.524653        41.4879 
 233   0.0000       1.538003        41.8512 
 234   0.0000       1.543604        42.0036 
 235   0.0000       1.564590        42.5747 
 236   0.0000       1.575961        42.8841 
 237   0.0000       1.585894        43.1544 
 238   0.0000       1.593784        43.3691 
 239   0.0000       1.593897        43.3721 
 240   0.0000       1.608142        43.7598 
 241   0.0000       1.633785        44.4575 
 242   0.0000       1.644490        44.7489 
 243   0.0000       1.649557        44.8867 
 244   0.0000       1.664348        45.2892 
 245   0.0000       1.683389        45.8073 
 246   0.0000       1.692868        46.0653 
 247   0.0000       1.701117        46.2897 
 248   0.0000       1.709992        46.5312 
 249   0.0000       1.715445        46.6796 
 250   0.0000       1.731325        47.1117 
 251   0.0000       1.746683        47.5297 
 252   0.0000       1.769885        48.1610 
 253   0.0000       1.777691        48.3734 
 254   0.0000       1.780506        48.4500 
 255   0.0000       1.812160        49.3114 
 256   0.0000       1.824488        49.6468 
 257   0.0000       1.827369        49.7252 
 258   0.0000       1.844075        50.1798 
 259   0.0000       1.857439        50.5435 
 260   0.0000       1.882954        51.2378 
 261   0.0000       1.889736        51.4223 
 262   0.0000       1.893243        51.5178 
 263   0.0000       1.906941        51.8905 
 264   0.0000       1.954008        53.1713 
 265   0.0000       1.990110        54.1536 
 266   0.0000       1.990964        54.1769 
 267   0.0000       2.025115        55.1062 
 268   0.0000       2.045945        55.6730 
 269   0.0000       2.048070        55.7308 
 270   0.0000       2.079203        56.5780 
 271   0.0000       2.094380        56.9910 
 272   0.0000       2.106004        57.3073 
 273   0.0000       2.120292        57.6961 
 274   0.0000       2.139404        58.2161 
 275   0.0000       2.146040        58.3967 
 276   0.0000       2.164817        58.9077 
 277   0.0000       2.178854        59.2896 
 278   0.0000       2.183217        59.4083 
 279   0.0000       2.188578        59.5542 
 280   0.0000       2.212880        60.2155 
 281   0.0000       2.214896        60.2704 
 282   0.0000       2.233194        60.7683 
 283   0.0000       2.243517        61.0492 
 284   0.0000       2.254181        61.3394 
 285   0.0000       2.269596        61.7588 
 286   0.0000       2.277318        61.9690 
 287   0.0000       2.279618        62.0316 
 288   0.0000       2.286318        62.2139 
 289   0.0000       2.301663        62.6314 
 290   0.0000       2.311649        62.9032 
 291   0.0000       2.321842        63.1805 
 292   0.0000       2.339577        63.6631 
 293   0.0000       2.359246        64.1983 
 294   0.0000       2.366050        64.3835 
 295   0.0000       2.390391        65.0458 
 296   0.0000       2.408388        65.5356 
 297   0.0000       2.415989        65.7424 
 298   0.0000       2.433909        66.2300 
 299   0.0000       2.446448        66.5712 
 300   0.0000       2.447391        66.5969 
 301   0.0000       2.453488        66.7628 
 302   0.0000       2.468015        67.1581 
 303   0.0000       2.484583        67.6089 
 304   0.0000       2.490562        67.7716 
 305   0.0000       2.506207        68.1973 
 306   0.0000       2.509155        68.2776 
 307   0.0000       2.524598        68.6978 
 308   0.0000       2.538226        69.0686 
 309   0.0000       2.548097        69.3372 
 310   0.0000       2.556980        69.5790 
 311   0.0000       2.579764        70.1989 
 312   0.0000       2.584698        70.3332 
 313   0.0000       2.593825        70.5816 
 314   0.0000       2.605621        70.9026 
 315   0.0000       2.617254        71.2191 
 316   0.0000       2.629811        71.5608 
 317   0.0000       2.638515        71.7976 
 318   0.0000       2.654776        72.2401 
 319   0.0000       2.659081        72.3573 
 320   0.0000       2.672324        72.7176 
 321   0.0000       2.685163        73.0670 
 322   0.0000       2.699599        73.4598 
 323   0.0000       2.714865        73.8752 
 324   0.0000       2.726242        74.1848 
 325   0.0000       2.733580        74.3845 
 326   0.0000       2.744240        74.6746 
 327   0.0000       2.749286        74.8119 
 328   0.0000       2.756024        74.9952 
 329   0.0000       2.771534        75.4173 
 330   0.0000       2.781785        75.6962 
 331   0.0000       2.796386        76.0935 
 332   0.0000       2.819514        76.7229 
 333   0.0000       2.826627        76.9164 
 334   0.0000       2.835316        77.1529 
 335   0.0000       2.842897        77.3591 
 336   0.0000       2.857922        77.7680 
 337   0.0000       2.886627        78.5491 
 338   0.0000       2.890957        78.6669 
 339   0.0000       2.912066        79.2413 
 340   0.0000       2.917010        79.3759 
 341   0.0000       2.934493        79.8516 
 342   0.0000       2.944477        80.1233 
 343   0.0000       2.959396        80.5293 
 344   0.0000       2.985188        81.2311 
 345   0.0000       3.021691        82.2244 
 346   0.0000       3.034480        82.5724 
 347   0.0000       3.070935        83.5644 
 348   0.0000       3.594072        97.7997 
 349   0.0000       3.624159        98.6184 
 350   0.0000       3.705619       100.8350 
 351   0.0000       3.729304       101.4795 
 352   0.0000       3.763328       102.4054 
 353   0.0000       3.782034       102.9144 
 354   0.0000       3.798139       103.3526 
 355   0.0000       3.815944       103.8371 
 356   0.0000       3.820404       103.9585 
 357   0.0000       3.829959       104.2185 
 358   0.0000       3.843133       104.5770 
 359   0.0000       3.863402       105.1285 
 360   0.0000       3.877450       105.5108 
 361   0.0000       3.880314       105.5887 
 362   0.0000       3.910473       106.4094 
 363   0.0000       3.932941       107.0208 
 364   0.0000       3.955671       107.6393 
 365   0.0000       3.960186       107.7621 
 366   0.0000       3.971693       108.0753 
 367   0.0000       3.982189       108.3609 
 368   0.0000       3.993360       108.6649 
 369   0.0000       4.018848       109.3584 
 370   0.0000       4.029816       109.6569 
 371   0.0000       4.037222       109.8584 
 372   0.0000       4.060306       110.4865 
 373   0.0000       4.071163       110.7820 
 374   0.0000       4.081448       111.0618 
 375   0.0000       4.096431       111.4695 
 376   0.0000       4.106792       111.7515 
 377   0.0000       4.113846       111.9434 
 378   0.0000       4.126322       112.2829 
 379   0.0000       4.143797       112.7584 
 380   0.0000       4.148665       112.8909 
 381   0.0000       4.156947       113.1163 
 382   0.0000       4.170344       113.4808 
 383   0.0000       4.188544       113.9761 
 384   0.0000       4.215572       114.7115 
 385   0.0000       4.222738       114.9066 
 386   0.0000       4.237246       115.3013 
 387   0.0000       4.246533       115.5540 
 388   0.0000       4.259248       115.9000 
 389   0.0000       4.272378       116.2573 
 390   0.0000       4.286354       116.6376 
 391   0.0000       4.299817       117.0040 
 392   0.0000       4.320927       117.5784 
 393   0.0000       4.330229       117.8315 
 394   0.0000       4.334587       117.9501 
 395   0.0000       4.353020       118.4517 
 396   0.0000       4.355654       118.5234 
 397   0.0000       4.360041       118.6427 
 398   0.0000       4.364146       118.7544 
 399   0.0000       4.391541       119.4999 
 400   0.0000       4.402550       119.7995 
 401   0.0000       4.413868       120.1075 
 402   0.0000       4.418067       120.2217 
 403   0.0000       4.441038       120.8468 
 404   0.0000       4.450512       121.1046 
 405   0.0000       4.460279       121.3704 
 406   0.0000       4.470686       121.6535 
 407   0.0000       4.491344       122.2157 
 408   0.0000       4.503932       122.5582 
 409   0.0000       4.534016       123.3768 
 410   0.0000       4.550613       123.8285 
 411   0.0000       4.561112       124.1142 
 412   0.0000       4.573718       124.4572 
 413   0.0000       4.614621       125.5702 
 414   0.0000       4.625099       125.8554 
 415   0.0000       4.643075       126.3445 
 416   0.0000       4.666985       126.9951 
 417   0.0000       4.673624       127.1758 
 418   0.0000       4.701350       127.9302 
 419   0.0000       4.716048       128.3302 
 420   0.0000       4.759319       129.5077 
 421   0.0000       4.766649       129.7071 
 422   0.0000       4.811512       130.9279 
 423   0.0000       4.823197       131.2459 
 424   0.0000       4.841191       131.7355 
 425   0.0000       4.856531       132.1529 
 426   0.0000       4.883219       132.8791 
 427   0.0000       4.898740       133.3015 
 428   0.0000       4.904183       133.4496 
 429   0.0000       4.924520       134.0030 
 430   0.0000       4.930758       134.1728 
 431   0.0000       4.952012       134.7511 
 432   0.0000       4.966122       135.1350 
 433   0.0000       4.979683       135.5041 
 434   0.0000       4.994654       135.9114 
 435   0.0000       5.005675       136.2113 
 436   0.0000       5.040573       137.1610 
 437   0.0000       5.044931       137.2796 
 438   0.0000       5.052517       137.4860 
 439   0.0000       5.066943       137.8785 
 440   0.0000       5.091215       138.5390 
 441   0.0000       5.098403       138.7346 
 442   0.0000       5.106502       138.9550 
 443   0.0000       5.128947       139.5658 
 444   0.0000       5.151138       140.1696 
 445   0.0000       5.169761       140.6763 
 446   0.0000       5.178854       140.9238 
 447   0.0000       5.189151       141.2040 
 448   0.0000       5.227447       142.2461 
 449   0.0000       5.247237       142.7846 
 450   0.0000       5.264548       143.2556 
 451   0.0000       5.293278       144.0374 
 452   0.0000       5.348184       145.5315 
 453   0.0000       5.399227       146.9204 
 454   0.0000       5.458003       148.5198 
 455   0.0000       5.476684       149.0282 
 456   0.0000       5.517944       150.1509 
 457   0.0000       5.538881       150.7206 
 458   0.0000       5.574688       151.6950 
 459   0.0000       5.589561       152.0997 
 460   0.0000       5.670942       154.3142 
 461   0.0000       5.713650       155.4763 
 462   0.0000       5.931153       161.3949 
 463   0.0000       5.985061       162.8618 
 464   0.0000       6.000146       163.2723 
 465   0.0000       6.046094       164.5226 
 466   0.0000       6.117656       166.4699 
 467   0.0000       6.167938       167.8381 
 468   0.0000       6.175642       168.0478 
 469   0.0000       6.178658       168.1298 
 470   0.0000       6.190821       168.4608 
 471   0.0000       6.235436       169.6748 
 472   0.0000       6.259458       170.3285 
 473   0.0000       6.310251       171.7106 
 474   0.0000       6.458577       175.7468 
 475   0.0000       6.469148       176.0345 
 476   0.0000       6.486310       176.5015 
 477   0.0000       6.491791       176.6506 
 478   0.0000       6.512320       177.2092 
 479   0.0000       6.531582       177.7334 
 480   0.0000       6.566126       178.6734 
 481   0.0000       6.585843       179.2099 
 482   0.0000       6.603250       179.6836 
 483   0.0000       6.631488       180.4520 
 484   0.0000       6.661961       181.2812 
 485   0.0000       6.687387       181.9731 
 486   0.0000       6.759407       183.9328 
 487   0.0000       6.765947       184.1108 
 488   0.0000       6.794024       184.8748 
 489   0.0000       6.813670       185.4094 
 490   0.0000       6.824000       185.6905 
 491   0.0000       6.838606       186.0879 
 492   0.0000       6.852648       186.4700 
 493   0.0000       6.866449       186.8456 
 494   0.0000       6.878024       187.1606 
 495   0.0000       6.895237       187.6289 
 496   0.0000       6.899676       187.7497 
 497   0.0000       6.916368       188.2039 
 498   0.0000       6.922787       188.3786 
 499   0.0000       6.926384       188.4765 
 500   0.0000       6.929615       188.5644 
 501   0.0000       6.942073       188.9034 
 502   0.0000       6.947281       189.0451 
 503   0.0000       6.959389       189.3746 
 504   0.0000       6.977012       189.8541 
 505   0.0000       6.991611       190.2514 
 506   0.0000       6.996157       190.3751 
 507   0.0000       7.005269       190.6231 
 508   0.0000       7.012674       190.8246 
 509   0.0000       7.026318       191.1958 
 510   0.0000       7.041466       191.6080 
 511   0.0000       7.055913       192.0012 
 512   0.0000       7.058852       192.0811 
 513   0.0000       7.063547       192.2089 
 514   0.0000       7.093810       193.0324 
 515   0.0000       7.120841       193.7679 
 516   0.0000       7.135353       194.1628 
 517   0.0000       7.146339       194.4618 
 518   0.0000       7.186622       195.5579 
 519   0.0000       7.233124       196.8233 
 520   0.0000       7.249385       197.2658 
 521   0.0000       7.269904       197.8241 
 522   0.0000       7.325341       199.3326 
 523   0.0000       7.419552       201.8963 
 524   0.0000       7.457122       202.9186 
 525   0.0000       7.484474       203.6629 
 526   0.0000       7.521458       204.6693 
 527   0.0000       7.562337       205.7817 
 528   0.0000       7.583076       206.3460 
 529   0.0000       7.603747       206.9085 
 530   0.0000       7.606559       206.9850 
 531   0.0000       7.635125       207.7623 
 532   0.0000       7.637770       207.8343 
 533   0.0000       7.678075       208.9310 
 534   0.0000       7.700366       209.5376 
 535   0.0000       7.735477       210.4930 
 536   0.0000       7.739415       210.6002 
 537   0.0000       7.750998       210.9154 
 538   0.0000       7.767243       211.3574 
 539   0.0000       7.838656       213.3007 
 540   0.0000       8.480473       230.7654 
 541   0.0000       8.490509       231.0385 
 542   0.0000       8.531723       232.1600 
 543   0.0000       8.547749       232.5961 
 544   0.0000       8.582632       233.5453 
 545   0.0000       8.624394       234.6817 
 546   0.0000      15.893065       432.4723 
 547   0.0000      16.043167       436.5568 
 548   0.0000      16.357250       445.1034 
 549   0.0000      16.795851       457.0383 
 550   0.0000      16.932919       460.7681 
 551   0.0000      17.337378       471.7740 

                    ********************************
                    * MULLIKEN POPULATION ANALYSIS *
                    ********************************

-----------------------
MULLIKEN ATOMIC CHARGES
-----------------------
   0 O :   -0.506420
   1 H :    0.344876
   2 H :    0.075590
   3 O :   -0.475400
   4 H :    0.273094
   5 H :    0.285143
   6 O :   -0.451293
   7 H :    0.349268
   8 H :    0.058058
   9 O :   -0.585404
  10 H :    0.331413
  11 H :    0.317337
  12 O :   -0.398601
  13 H :    0.303429
  14 H :    0.110431
  15 O :   -0.438444
  16 H :    0.281763
  17 H :    0.125160
Sum of atomic charges:    0.0000000

--------------------------------
MULLIKEN REDUCED ORBITAL CHARGES
--------------------------------
  0 O s       :     4.088122  s :     4.088122
      pz      :     1.766570  p :     4.416996
      px      :     1.444088
      py      :     1.206338
      dz2     :    -0.001058  d :     0.001720
      dxz     :     0.001433
      dyz     :    -0.001855
      dx2y2   :    -0.001142
      dxy     :     0.004341
      f0      :     0.000032  f :    -0.000418
      f+1     :     0.000060
      f-1     :     0.000024
      f+2     :    -0.000060
      f-2     :     0.000033
      f+3     :    -0.000057
      f-3     :    -0.000450
  1 H s       :     0.557775  s :     0.557775
      pz      :     0.063113  p :     0.056593
      px      :    -0.017783
      py      :     0.011263
      dz2     :     0.000160  d :     0.040756
      dxz     :     0.013814
      dyz     :     0.012152
      dx2y2   :     0.016670
      dxy     :    -0.002040
  2 H s       :     0.801920  s :     0.801920
      pz      :     0.069220  p :     0.107531
      px      :     0.032243
      py      :     0.006069
      dz2     :     0.002326  d :     0.014960
      dxz     :     0.000328
      dyz     :     0.007697
      dx2y2   :     0.000449
      dxy     :     0.004159
  3 O s       :     4.055430  s :     4.055430
      pz      :     1.705747  p :     4.413032
      px      :     1.302235
      py      :     1.405051
      dz2     :     0.001713  d :     0.007392
      dxz     :     0.003427
      dyz     :     0.000663
      dx2y2   :     0.000467
      dxy     :     0.001123
      f0      :    -0.000024  f :    -0.000454
      f+1     :     0.000037
      f-1     :     0.000005
      f+2     :    -0.000036
      f-2     :    -0.000039
      f+3     :    -0.000428
      f-3     :     0.000032
  4 H s       :     0.566289  s :     0.566289
      pz      :     0.051494  p :     0.139374
      px      :     0.050706
      py      :     0.037175
      dz2     :    -0.001061  d :     0.021243
      dxz     :     0.006654
      dyz     :     0.007934
      dx2y2   :     0.009799
      dxy     :    -0.002082
  5 H s       :     0.588085  s :     0.588085
      pz      :     0.026573  p :     0.101531
      px      :     0.027948
      py      :     0.047010
      dz2     :     0.010478  d :     0.025241
      dxz     :     0.006248
      dyz     :     0.000759
      dx2y2   :    -0.001009
      dxy     :     0.008766
  6 O s       :     4.046787  s :     4.046787
      pz      :     1.558798  p :     4.401249
      px      :     1.680555
      py      :     1.161896
      dz2     :    -0.000531  d :     0.003717
      dxz     :     0.005771
      dyz     :     0.004639
      dx2y2   :    -0.007997
      dxy     :     0.001835
      f0      :     0.000061  f :    -0.000460
      f+1     :     0.000027
      f-1     :    -0.000307
      f+2     :     0.000007
      f-2     :     0.000013
      f+3     :     0.000069
      f-3     :    -0.000330
  7 H s       :     0.558054  s :     0.558054
      pz      :    -0.005641  p :     0.045801
      px      :     0.025637
      py      :     0.025805
      dz2     :     0.015049  d :     0.046878
      dxz     :    -0.003495
      dyz     :     0.006866
      dx2y2   :     0.017429
      dxy     :     0.011029
  8 H s       :     0.812565  s :     0.812565
      pz      :     0.048660  p :     0.112154
      px      :     0.060026
      py      :     0.003467
      dz2     :    -0.000328  d :     0.017224
[...]
      1       0.003580   0.029264   0.000589   0.010706  -0.000208  -0.002411
      2      -0.000382   0.002722   0.000784   0.000886  -0.000257   0.000175
      3      -0.081456  -0.765497  -0.019961  -0.300432   0.017140   0.038608
      4      -0.044839  -0.501330  -0.013045  -0.205213   0.010377   0.031162
      5       0.000028  -0.048282  -0.003515  -0.023486   0.002230   0.005808
      6      -0.001966  -0.004164  -0.001506  -0.002546  -0.001311  -0.006121
      7       0.006693   0.072741   0.003274   0.035252  -0.002031   0.006473
      8       0.000761   0.015644   0.001700   0.007201  -0.000357   0.005965
      9      -0.004254   0.003828  -0.018046   0.001595   0.050630  -0.006688
     10      -0.002537  -0.002109  -0.000704  -0.000532   0.009790   0.012146
     11       0.006273  -0.000566   0.007725  -0.000922  -0.023823  -0.001975
     12      -0.025575  -0.020117  -0.004477  -0.004067   0.062786   0.110459
     13       0.053755   0.038376  -0.018670   0.006868  -0.057528  -0.197092
     14       0.001130  -0.000946   0.003557   0.000542  -0.004794   0.023272
     15       0.111150  -0.031953   0.278279  -0.021565  -0.856827  -0.009984
     16       0.014421  -0.007205   0.029223  -0.002261  -0.100905   0.006346
     17      -0.041009   0.013602  -0.114214   0.010572   0.369169   0.004491
     18      -0.032875   0.005409   0.002697  -0.003659  -0.002893  -0.000475
     19      -0.021529   0.002946   0.001521  -0.002923  -0.001828   0.000048
     20      -0.048862   0.005616   0.004585  -0.003957  -0.004430  -0.001009
     21       0.513258  -0.071056  -0.049649   0.050580   0.050095   0.009389
     22       0.338041  -0.055975  -0.035805   0.043275   0.043052   0.009103
     23       0.750723  -0.100489  -0.072018   0.077870   0.073219   0.017225
     24      -0.000329   0.005028  -0.000681  -0.009250  -0.001135  -0.000260
     25      -0.055830   0.002350   0.006957   0.008884  -0.010312  -0.005381
     26      -0.007827   0.002599   0.001892  -0.002013  -0.000788  -0.000571
     27       0.000276   0.001576   0.003606   0.001055   0.000760   0.034719
     28       0.002539  -0.005358  -0.000249   0.002618   0.000599  -0.025691
     29      -0.000610  -0.002399  -0.004854   0.000104  -0.000411  -0.033683
     30       0.005812  -0.037842  -0.053688   0.003384  -0.004720  -0.476544
     31       0.001906   0.046895   0.068340  -0.001973   0.002067   0.617345
     32       0.001153   0.037963   0.051212  -0.004291   0.004684   0.519060
     33      -0.012832   0.015752  -0.028070  -0.018758  -0.007776  -0.071797
     34      -0.033913   0.030302  -0.059739  -0.036215  -0.010957  -0.213941
     35      -0.003325  -0.002770   0.001338  -0.000383   0.003075   0.004567
     36      -0.006812  -0.014851   0.002363   0.035678  -0.000516   0.000238
     37       0.006667   0.015341  -0.002776  -0.041255   0.000417  -0.000528
     38       0.001683   0.005307  -0.000554  -0.012212   0.000006  -0.000159
     39       0.085980   0.225062  -0.038653  -0.607727   0.007669  -0.005938
     40      -0.106195  -0.259068   0.044267   0.671962  -0.006549   0.006319
     41      -0.023936  -0.058330   0.007288   0.137399  -0.000296   0.002250
     42      -0.007365  -0.032075   0.003691   0.058696  -0.000203   0.000218
     43       0.001895  -0.003036  -0.001301  -0.022267   0.000460   0.000167
     44      -0.004096  -0.030145   0.001352   0.052343   0.000127   0.000594
     45       0.003480  -0.000427   0.034685  -0.001938   0.011231  -0.003251
     46      -0.001543   0.000353  -0.018484   0.000943  -0.005690   0.002585
     47       0.002506  -0.000201   0.042405  -0.002311   0.014094  -0.004871
     48      -0.038080   0.005197  -0.577924   0.033262  -0.201243   0.075153
     49       0.022170  -0.004038   0.242892  -0.011810   0.075022  -0.025960
     50      -0.046930   0.004716  -0.689847   0.037502  -0.226441   0.079859
     51       0.005660  -0.000866   0.070050  -0.004193   0.013808  -0.017544
     52       0.005424  -0.001824   0.052689  -0.003296   0.008423  -0.014702
     53      -0.001435   0.000102   0.016221  -0.001012   0.015410  -0.003480
                 48         49         50         51         52         53    
      0       0.002362   0.001797   0.001287  -0.000198   0.000191   0.012076
      1       0.003134   0.001643  -0.002987   0.001357  -0.000826  -0.059625
      2       0.001122  -0.000012  -0.000670   0.000273  -0.000226  -0.012918
      3      -0.046634  -0.031051  -0.005012  -0.002628   0.000902   0.066326
      4      -0.035296  -0.024536  -0.005838  -0.001049   0.000170   0.007045
      5      -0.004952  -0.002486  -0.003389  -0.000261   0.000156  -0.002612
      6       0.009527   0.004789  -0.014960   0.005724  -0.003535  -0.260621
      7      -0.019963  -0.006272   0.054205  -0.019843   0.012634   0.935934
      8      -0.002373  -0.002478   0.012144  -0.004424   0.002827   0.207067
      9      -0.033111  -0.005757   0.000027   0.000061   0.000781  -0.000819
     10       0.049455   0.009633  -0.000019   0.000613   0.000100   0.001219
     11      -0.004915  -0.000962   0.000063   0.000032  -0.000372  -0.000120
     12       0.463273   0.087931  -0.000451   0.004365  -0.001301   0.012264
     13      -0.820913  -0.156033   0.000535  -0.005829   0.001385  -0.020779
     14       0.102826   0.021446  -0.000414   0.001255   0.000552   0.001924
     15       0.049375   0.004314   0.000670  -0.003799  -0.010501   0.000927
     16       0.034774   0.005010  -0.000173  -0.000080  -0.003955   0.000878
     17      -0.031955  -0.002823  -0.000374   0.001454   0.004446  -0.000695
     18      -0.001431   0.000429   0.000073   0.002390   0.000147  -0.000040
     19      -0.000820   0.002337   0.008280  -0.061122  -0.003860  -0.001699
     20      -0.002110   0.001763   0.000282  -0.000355  -0.000049  -0.000059
     21       0.025665  -0.017736  -0.006371   0.022894   0.001436   0.001418
     22       0.023601  -0.015929  -0.001774  -0.015990  -0.001384   0.000278
     23       0.035344  -0.026480  -0.009788   0.033297   0.002278   0.002030
     24       0.000222   0.001287   0.009129  -0.061649  -0.003768  -0.001555
     25      -0.004354  -0.025792  -0.131473   0.983044   0.062803   0.027305
     26      -0.001422   0.004315   0.005015  -0.031061  -0.001843  -0.000813
     27      -0.011418   0.015749   0.000170   0.000512   0.000847  -0.000615
     28      -0.005857   0.062464   0.000466   0.001572   0.000293   0.000812
     29       0.007334   0.002358  -0.000010  -0.000105  -0.000316   0.000641
     30       0.087239   0.151131   0.000781   0.002416  -0.005977   0.010564
     31      -0.120874  -0.140693  -0.001389  -0.001441   0.007865  -0.013150
     32      -0.095678  -0.151683  -0.000666  -0.002106   0.005878  -0.010168
     33       0.095384  -0.403461  -0.003673  -0.010455  -0.004476  -0.000556
     34       0.211982  -0.844779  -0.006331  -0.023761  -0.011799  -0.000143
     35      -0.020853   0.110389   0.001467   0.003469   0.001508   0.000506
     36      -0.000266  -0.001398  -0.039758  -0.006079   0.000329   0.001984
     37       0.000599   0.002431   0.006226   0.001581   0.000009   0.000201
     38      -0.000068   0.001204  -0.046782  -0.006158   0.000436   0.002607
     39       0.005667   0.037303   0.031689   0.014952   0.000477   0.004430
     40      -0.006376  -0.039273  -0.054702  -0.020722  -0.000560  -0.002181
     41      -0.000873  -0.007294  -0.039751  -0.006501   0.000355   0.001427
     42       0.000937  -0.010259   0.594585   0.079770  -0.005614  -0.032919
     43      -0.000388   0.000901  -0.042945  -0.005435   0.000397   0.002776
     44       0.002096  -0.011870   0.783526   0.105262  -0.007149  -0.042407
     45      -0.000017  -0.001129  -0.000723   0.002808  -0.045438   0.000687
     46      -0.000289   0.001132  -0.000702   0.002604  -0.041823   0.000648
     47      -0.000434  -0.001793  -0.000111   0.000447  -0.008616   0.000123
     48      -0.000411   0.029779   0.000005  -0.001155   0.028500  -0.000263
     49      -0.001114  -0.009569  -0.000687   0.002239  -0.046188   0.000694
     50       0.003412   0.030231   0.000518  -0.002432   0.056646  -0.000643
     51       0.006235  -0.007834   0.011421  -0.042399   0.688607  -0.010692
     52       0.005300  -0.007090   0.011789  -0.043658   0.710468  -0.011023
     53      -0.000337  -0.001900   0.001314  -0.004853   0.079477  -0.001271


-----------
IR SPECTRUM  
-----------

 Mode    freq (cm**-1)   T**2         TX         TY         TZ
-------------------------------------------------------------------
   6:        53.32    1.359737  ( -1.137245  -0.115214   0.230514)
   7:        65.86    3.511657  (  1.651529  -0.753344  -0.465382)
   8:        84.26    0.459064  ( -0.268972  -0.303599   0.542721)
   9:       103.96    0.496563  ( -0.135254  -0.613256  -0.319666)
  10:       112.73    2.570309  (  1.139319  -0.053248  -1.126688)
  11:       137.32    1.784880  ( -1.114173  -0.566974   0.471210)
  12:       189.53   10.223699  ( -3.013316   0.639381  -0.857216)
  13:       232.04   17.184508  (  3.879984   1.273483   0.713075)
  14:       247.93    6.898785  ( -2.162572  -1.001546  -1.104072)
  15:       250.06   32.273576  ( -0.820938   0.915033   5.546382)
  16:       252.48   23.645871  (  1.828882   2.595843  -3.682752)
  17:       265.67   56.746407  ( -5.589279   4.820710   1.505697)
  18:       271.29   61.375173  ( -7.815094   0.249112   0.487252)
  19:       300.99   81.383672  ( -8.380203  -3.024989   1.416092)
  20:       317.49   23.320564  ( -3.518353  -2.175362  -2.491898)
  21:       329.60   53.679439  ( -1.923076   2.071406   6.759474)
  22:       422.20   45.602232  (  3.924724   0.736519   5.445761)
  23:       443.51   80.131467  (  7.624706  -4.197552  -2.091860)
  24:       470.72   26.221445  (  4.785421   1.326210   1.249943)
  25:       494.60   93.915219  ( -2.269821   1.440865  -9.310588)
  26:       517.44   22.486829  ( -0.411386   4.346915  -1.849843)
  27:       565.29  219.636110  ( -6.559538 -12.102151  -5.490584)
  28:       625.28   81.424430  ( -8.715455   2.315184  -0.324333)
  29:       675.12  145.562604  ( -4.576875   5.148991  -9.904681)
  30:       735.41    8.291891  (  1.627876  -1.583385   1.770538)
  31:       794.36  184.741133  ( -5.649534  -4.002818 -11.696211)
  32:       867.23   67.567278  ( -3.205440   3.585484  -6.666088)
  33:       873.68  195.370763  (-10.963629  -1.811206   8.478746)
  34:       937.10   35.423468  (  5.057961  -0.240247  -3.127744)
  35:      1089.98   50.485808  (  3.851641   0.755176  -5.922869)
  36:      1641.80   73.633848  (  3.447142   1.053285  -7.787275)
  37:      1656.04   69.495329  ( -4.346597  -6.655331   2.511771)
  38:      1668.47   64.461015  ( -4.972346   6.253501  -0.794050)
  39:      1678.28   37.775636  ( -1.810152  -5.826059   0.745672)
  40:      1689.85   57.817461  (  6.116604   1.268765  -4.335302)
  41:      1706.52   26.755269  ( -1.946409  -1.129489   4.657362)
  42:      2869.60  934.856121  ( 20.190842  13.832074  18.326477)
  43:      3144.35  914.016685  (-16.686521 -24.649568  -5.289186)
  44:      3206.54  716.722203  (-18.660217   2.852489 -18.983725)
  45:      3273.13  759.998737  (-26.032695   8.288036   3.688630)
  46:      3330.83  713.725432  (-25.200179  -1.117398   8.799308)
  47:      3495.16  260.955729  ( -5.969982   5.401588  14.004924)
  48:      3551.83  317.881122  ( 14.392308 -10.502477   0.663749)
  49:      3584.06  332.993142  ( -0.778336 -18.201430   1.046554)
  50:      3760.29   52.421481  (  5.928064  -2.684409   3.173876)
  51:      3765.36   33.532802  (  1.332817   5.370001   1.708651)
  52:      3768.17   45.503433  (  5.485648   2.988405   2.545688)
  53:      3769.99   45.847943  (  1.178537   6.570838   1.132730)

The first frequency considered to be a vibration is 6
The total number of vibrations considered is 48


--------------------------
THERMOCHEMISTRY AT 298.15K
--------------------------

Temperature         ... 298.15 K
Pressure            ... 1.00 atm
Total Mass          ... 108.09 AMU

Throughout the following assumptions are being made:
  (1) The electronic state is orbitally nondegenerate
  (2) There are no thermally accessible electronically excited states
  (3) Hindered rotations indicated by low frequency modes are not
      treated as such but are treated as vibrations and this may
      cause some error
  (4) All equations used are the standard statistical mechanics
      equations for an ideal gas
  (5) All vibrations are strictly harmonic

freq.      53.32  E(vib)   ...       0.52 
freq.      65.86  E(vib)   ...       0.50 
freq.      84.26  E(vib)   ...       0.48 
freq.     103.96  E(vib)   ...       0.46 
freq.     112.73  E(vib)   ...       0.45 
freq.     137.32  E(vib)   ...       0.42 
freq.     189.53  E(vib)   ...       0.36 
freq.     232.04  E(vib)   ...       0.32 
freq.     247.93  E(vib)   ...       0.31 
freq.     250.06  E(vib)   ...       0.31 
freq.     252.48  E(vib)   ...       0.30 
freq.     265.67  E(vib)   ...       0.29 
freq.     271.29  E(vib)   ...       0.29 
freq.     300.99  E(vib)   ...       0.26 
freq.     317.49  E(vib)   ...       0.25 
freq.     329.60  E(vib)   ...       0.24 
freq.     422.20  E(vib)   ...       0.18 
freq.     443.51  E(vib)   ...       0.17 
freq.     470.72  E(vib)   ...       0.15 
freq.     494.60  E(vib)   ...       0.14 
freq.     517.44  E(vib)   ...       0.13 
freq.     565.29  E(vib)   ...       0.11 
freq.     625.28  E(vib)   ...       0.09 
freq.     675.12  E(vib)   ...       0.08 
freq.     735.41  E(vib)   ...       0.06 
freq.     794.36  E(vib)   ...       0.05 
freq.     867.23  E(vib)   ...       0.04 
freq.     873.68  E(vib)   ...       0.04 
freq.     937.10  E(vib)   ...       0.03 
freq.    1089.98  E(vib)   ...       0.02 
freq.    1641.80  E(vib)   ...       0.00 
freq.    1656.04  E(vib)   ...       0.00 
freq.    1668.47  E(vib)   ...       0.00 
freq.    1678.28  E(vib)   ...       0.00 
freq.    1689.85  E(vib)   ...       0.00 
freq.    1706.52  E(vib)   ...       0.00 
freq.    2869.60  E(vib)   ...       0.00 
freq.    3144.35  E(vib)   ...       0.00 
freq.    3206.54  E(vib)   ...       0.00 
freq.    3273.13  E(vib)   ...       0.00 
freq.    3330.83  E(vib)   ...       0.00 
freq.    3495.16  E(vib)   ...       0.00 
freq.    3551.83  E(vib)   ...       0.00 
freq.    3584.06  E(vib)   ...       0.00 
freq.    3760.29  E(vib)   ...       0.00 
freq.    3765.36  E(vib)   ...       0.00 
freq.    3768.17  E(vib)   ...       0.00 
freq.    3769.99  E(vib)   ...       0.00 

------------
INNER ENERGY
------------

The inner energy is: U= E(el) + E(ZPE) + E(vib) + E(rot) + E(trans)
    E(el)   - is the total energy from the electronic structure calculation
              = E(kin-el) + E(nuc-el) + E(el-el) + E(nuc-nuc)
    E(ZPE)  - the the zero temperature vibrational energy from the frequency calculation
    E(vib)  - the the finite temperature correction to E(ZPE) due to population
              of excited vibrational states
    E(rot)  - is the rotational thermal energy
    E(trans)- is the translational thermal energy

Summary of contributions to the inner energy U:
Electronic energy                ...   -458.88131012 Eh
Zero point energy                ...      0.14645598 Eh      91.90 kcal/mol
Thermal vibrational correction   ...      0.01125245 Eh       7.06 kcal/mol
Thermal rotational correction    ...      0.00141627 Eh       0.89 kcal/mol
Thermal translational correction ...      0.00141627 Eh       0.89 kcal/mol
-----------------------------------------------------------------------
Total thermal energy                   -458.72076915 Eh


Summary of corrections to the electronic energy:
(perhaps to be used in another calculation)
Total thermal correction                  0.01408499 Eh       8.84 kcal/mol
Non-thermal (ZPE) correction              0.14645598 Eh      91.90 kcal/mol
-----------------------------------------------------------------------
Total correction                          0.16054098 Eh     100.74 kcal/mol


--------
ENTHALPY
--------

The enthalpy is H = U + kB*T
                kB is Boltzmann's constant
Total free energy                 ...   -458.72076915 Eh 
Thermal Enthalpy correction       ...      0.00094421 Eh       0.59 kcal/mol
-----------------------------------------------------------------------
Total Enthalpy                    ...   -458.71982494 Eh


Note: Only C1 symmetry has been detected, increase convergence thresholds 
      if your molecule has a higher symmetry. Symmetry factor of 1.0 is   
      used for the rotational entropy correction. 
 

Note: Rotational entropy computed according to Herzberg 
Infrared and Raman Spectra, Chapter V,1, Van Nostrand Reinhold, 1945 
Point Group:  C1, Symmetry Number:   1  
Rotational constants in cm-1:     0.077728     0.039061     0.037436 

Vibrational entropy computed according to the QRRHO of S. Grimme
Chem.Eur.J. 2012 18 9955


-------
ENTROPY
-------

The entropy contributions are T*S = T*(S(el)+S(vib)+S(rot)+S(trans))
     S(el)   - electronic entropy
     S(vib)  - vibrational entropy
     S(rot)  - rotational entropy
     S(trans)- translational entropy
The entropies will be listed as mutliplied by the temperature to get
units of energy

Electronic entropy                ...      0.00000000 Eh      0.00 kcal/mol
Vibrational entropy               ...      0.01983592 Eh     12.45 kcal/mol
Rotational entropy                ...      0.01379847 Eh      8.66 kcal/mol
Translational entropy             ...      0.01898142 Eh     11.91 kcal/mol
-----------------------------------------------------------------------
Final entropy term                ...      0.05261581 Eh     33.02 kcal/mol

In case the symmetry of your molecule has not been determined correctly
or in case you have a reason to use a different symmetry number we print 
out the resulting rotational entropy values for sn=1,12 :
 --------------------------------------------------------
|  sn= 1 | S(rot)=       0.01379847 Eh      8.66 kcal/mol|
|  sn= 2 | S(rot)=       0.01314401 Eh      8.25 kcal/mol|
|  sn= 3 | S(rot)=       0.01276118 Eh      8.01 kcal/mol|
|  sn= 4 | S(rot)=       0.01248956 Eh      7.84 kcal/mol|
|  sn= 5 | S(rot)=       0.01227887 Eh      7.71 kcal/mol|
|  sn= 6 | S(rot)=       0.01210672 Eh      7.60 kcal/mol|
|  sn= 7 | S(rot)=       0.01196118 Eh      7.51 kcal/mol|
|  sn= 8 | S(rot)=       0.01183510 Eh      7.43 kcal/mol|
|  sn= 9 | S(rot)=       0.01172389 Eh      7.36 kcal/mol|
|  sn=10 | S(rot)=       0.01162441 Eh      7.29 kcal/mol|
|  sn=11 | S(rot)=       0.01153442 Eh      7.24 kcal/mol|
|  sn=12 | S(rot)=       0.01145227 Eh      7.19 kcal/mol|
 --------------------------------------------------------


-------------------
GIBBS FREE ENERGY
-------------------

The Gibbs free energy is G = H - T*S

Total enthalpy                    ...   -458.71982494 Eh 
Total entropy correction          ...     -0.05261581 Eh    -33.02 kcal/mol
-----------------------------------------------------------------------
Final Gibbs free energy         ...   -458.77244075 Eh

For completeness - the Gibbs free energy minus the electronic energy
G-E(el)                           ...      0.10886937 Eh     68.32 kcal/mol


Total Time for Numerical Frequencies  :       689.853 sec

Timings for individual modules:

Sum of individual times         ...      363.510 sec (=   6.059 min)
GTO integral calculation        ...       28.295 sec (=   0.472 min)   7.8 %
SCF iterations                  ...      206.425 sec (=   3.440 min)  56.8 %
SCF Gradient evaluation         ...      121.375 sec (=   2.023 min)  33.4 %
Geometry relaxation             ...        7.415 sec (=   0.124 min)   2.0 %
                             ****ORCA TERMINATED NORMALLY****
TOTAL RUN TIME: 0 days 0 hours 17 minutes 32 seconds 737 msec
