
                                 *****************
                                 * O   R   C   A *
                                 *****************

           --- An Ab Initio, DFT and Semiempirical electronic structure package ---

                  #######################################################
                  #                        -***-                        #
                  #          Department of theory and spectroscopy      #
                  #               Directorship: Frank Neese             #
                  #        Max Planck Institute fuer Kohlenforschung    #
                  #                Kaiser Wilhelm Platz 1               #
                  #                 D-45470 Muelheim/Ruhr               #
                  #                      Germany                        #
                  #                                                     #
                  #                  All rights reserved                #
                  #                        -***-                        #
                  #######################################################


                         Program Version 4.2.0 -  RELEASE  -


 With contributions from (in alphabetic order):
   Daniel Aravena         : Magnetic Suceptibility
   Michael Atanasov       : Ab Initio Ligand Field Theory (pilot matlab implementation)
   Alexander A. Auer      : GIAO ZORA, VPT2
   Ute Becker             : Parallelization
   Giovanni Bistoni       : ED, misc. LED, open-shell LED, HFLED
   Martin Brehm           : Molecular dynamics
   Dmytro Bykov           : SCF Hessian
   Vijay G. Chilkuri      : MRCI spin determinant printing, contributions to CSF-ICE
   Dipayan Datta          : RHF DLPNO-CCSD density
   Achintya Kumar Dutta   : EOM-CC, STEOM-CC
   Dmitry Ganyushin       : Spin-Orbit,Spin-Spin,Magnetic field MRCI
   Miquel Garcia          : C-PCM Hessian, Gaussian charge scheme
   Yang Guo               : DLPNO-NEVPT2, CIM, IAO-localization
   Andreas Hansen         : Spin unrestricted coupled pair/coupled cluster methods
   Benjamin Helmich-Paris : CASSCF linear response (MC-RPA)
   Lee Huntington         : MR-EOM, pCC
   Robert Izsak           : Overlap fitted RIJCOSX, COSX-SCS-MP3, EOM
   Christian Kollmar      : KDIIS, OOCD, Brueckner-CCSD(T), CCSD density
   Simone Kossmann        : Meta GGA functionals, TD-DFT gradient, OOMP2, MP2 Hessian
   Martin Krupicka        : AUTO-CI
   Lucas Lang             : DCDCAS
   Dagmar Lenk            : GEPOL surface, SMD
   Dimitrios Liakos       : Extrapolation schemes; Compound Job, initial MDCI parallelization
   Dimitrios Manganas     : Further ROCIS development; embedding schemes
   Dimitrios Pantazis     : SARC Basis sets
   Taras Petrenko         : DFT Hessian,TD-DFT gradient, ASA, ECA, R-Raman, ABS, FL, XAS/XES, NRVS
   Peter Pinski           : DLPNO-MP2, DLPNO-MP2 Gradient
   Christoph Reimann      : Effective Core Potentials
   Marius Retegan         : Local ZFS, SOC
   Christoph Riplinger    : Optimizer, TS searches, QM/MM, DLPNO-CCSD(T), (RO)-DLPNO pert. Triples
   Tobias Risthaus        : Range-separated hybrids, TD-DFT gradient, RPA, STAB
   Michael Roemelt        : Original ROCIS implementation
   Masaaki Saitow         : Open-shell DLPNO-CCSD energy and density
   Barbara Sandhoefer     : DKH picture change effects
   Avijit Sen             : IP-ROCIS
   Kantharuban Sivalingam : CASSCF convergence, NEVPT2, FIC-MRCI
   Bernardo de Souza      : ESD, SOC TD-DFT
   Georgi Stoychev        : AutoAux, RI-MP2 NMR
   Willem Van den Heuvel  : Paramagnetic NMR
   Boris Wezisla          : Elementary symmetry handling
   Frank Wennmohs         : Technical directorship


 We gratefully acknowledge several colleagues who have allowed us to
 interface, adapt or use parts of their codes:
   Stefan Grimme, W. Hujo, H. Kruse,             : VdW corrections, initial TS optimization,
                  C. Bannwarth                     DFT functionals, gCP, sTDA/sTD-DF
   Ed Valeev, F. Pavosevic, A. Kumar             : LibInt (2-el integral package), F12 methods
   Garnet Chan, S. Sharma, J. Yang, R. Olivares  : DMRG
   Ulf Ekstrom                                   : XCFun DFT Library
   Mihaly Kallay                                 : mrcc  (arbitrary order and MRCC methods)
   Andreas Klamt, Michael Diedenhofen            : otool_cosmo (COSMO solvation model)
   Jiri Pittner, Ondrej Demel                    : Mk-CCSD
   Frank Weinhold                                : gennbo (NPA and NBO analysis)
   Christopher J. Cramer and Donald G. Truhlar   : smd solvation model
   Lars Goerigk                                  : TD-DFT with DH, B97 family of functionals
   V. Asgeirsson, H. Jonsson                     : NEB implementation
   FAccTs GmbH                                   : IRC, NEB, NEB-TS, Multilevel, MM, QM/MM, CI optimization
   S Lehtola, MJT Oliveira, MAL Marques          : LibXC Library


 Your calculation uses the libint2 library for the computation of 2-el integrals
 For citations please refer to: http://libint.valeyev.net

 Your ORCA version has been built with support for libXC version: 4.2.3
 For citations please refer to: https://tddft.org/programs/libxc/

 This ORCA versions uses:
   CBLAS   interface :  Fast vector & matrix operations
   LAPACKE interface :  Fast linear algebra routines
   SCALAPACK package :  Parallel linear algebra routines


Your calculation utilizes the atom-pairwise dispersion correction
with the Becke-Johnson damping scheme (D3BJ)
Cite in your paper:
S.Grimme, S.Ehrlich, L.Goerigk, J Comput Chem, (2011), 32, 1456–1465 
S.Grimme, J.Antony, S.Ehrlich and H.Krieg, J.Chem.Phys., 132, (2010), 154104 
   

----- Orbital basis set information -----
Your calculation utilizes the basis: aug-cc-pV(T+d)Z 
             Al - Ar: T.H. Dunning, Jr., K. A. Peterson and A. K. Wilson, J. Chem. Phys.
                      114, 9244 (2001)

----- AuxJ basis set information -----
Your calculation utilizes the auxiliary basis: def2/J
   F. Weigend, Phys. Chem. Chem. Phys. 8, 1057 (2006).

================================================================================
                                        WARNINGS
                       Please study these warnings very carefully!
================================================================================


WARNING: Geometry Optimization
  ===> : Switching off AutoStart
         For restart on a previous wavefunction, please use MOREAD

INFO   : the flag for use of LIBINT has been found!

================================================================================
                                       INPUT FILE
================================================================================
NAME = 09_H2O_6_prism.in
|  1> #
|  2> # 09_H2O_6_prism tpss/aug-cc-pvt(+d)z
|  3> #
|  4> ! tpss d3bj aug-cc-pvt(+d)z def2/j grid4 nofinalgrid opt xyzfile numfreq
|  5> 
|  6> *xyz 0 1
|  7> O	-1.511782	-0.232325	1.434522
|  8> H	-0.6139	-0.631798	1.542476
|  9> H	-2.015087	-0.484249	2.21021
| 10> O	-1.744551	-0.350365	-1.322141
| 11> H	-1.89002	-0.475498	-0.368433
| 12> H	-2.508917	-0.726304	-1.761973
| 13> O	-0.568902	2.010658	-0.079448
| 14> H	-0.9578	1.52123	0.658817
| 15> H	-0.991476	1.598457	-0.84212
| 16> O	0.972064	-1.194842	1.413465
| 17> H	0.986177	-1.536208	0.500658
| 18> H	1.544338	-0.420911	1.334663
| 19> O	0.983916	-1.359847	-1.372465
| 20> H	0.077993	-1.073694	-1.552782
| 21> H	1.480193	-0.535792	-1.283351
| 22> O	2.003223	1.063257	-0.092296
| 23> H	1.144078	1.530799	-0.098089
| 24> H	2.67269	1.741694	-0.193152
| 25> *
| 26> 
| 27> %maxcore 5000
| 28> 
| 29> %pal
| 30> nprocs 24
| 31> end
| 32> 
| 33> 
| 34>                          ****END OF INPUT****
================================================================================

                       *****************************
                       * Geometry Optimization Run *
                       *****************************

Geometry optimization settings:
Update method            Update   .... BFGS
Choice of coordinates    CoordSys .... Z-matrix Internals
Initial Hessian          InHess   .... Almoef's Model

Convergence Tolerances:
Energy Change            TolE     ....  5.0000e-06 Eh
Max. Gradient            TolMAXG  ....  3.0000e-04 Eh/bohr
RMS Gradient             TolRMSG  ....  1.0000e-04 Eh/bohr
Max. Displacement        TolMAXD  ....  4.0000e-03 bohr
RMS Displacement         TolRMSD  ....  2.0000e-03 bohr
Strict Convergence                ....  False
------------------------------------------------------------------------------
                        ORCA OPTIMIZATION COORDINATE SETUP
------------------------------------------------------------------------------

The optimization will be done in new redundant internal coordinates
Making redundant internal coordinates   ...  (new redundants) done
Evaluating the initial hessian          ...  (Almloef) done
Evaluating the coordinates              ...  done
Calculating the B-matrix                .... done
Calculating the G-matrix                .... done
Diagonalizing the G-matrix              .... done
The first mode is                       ....  371
The number of degrees of freedom        ....   48

    -----------------------------------------------------------------
                    Redundant Internal Coordinates


    -----------------------------------------------------------------
         Definition                    Initial Value    Approx d2E/dq
    -----------------------------------------------------------------
      1. B(H   1,O   0)                  0.9886         0.468016   
      2. B(H   2,O   0)                  0.9584         0.523079   
      3. B(H   4,O   0)                  1.8582         0.019186   
      4. B(H   4,O   3)                  0.9728         0.496036   
      5. B(H   4,H   1)                  2.3031         0.000800   
      6. B(H   5,O   3)                  0.9587         0.522513   
      7. B(H   7,H   4)                  2.4313         0.000499   
      8. B(H   7,H   1)                  2.3526         0.000667   
      9. B(H   7,O   0)                  1.9959         0.011568   
     10. B(H   7,O   6)                  0.9674         0.506056   
     11. B(H   8,H   4)                  2.3093         0.000782   
     12. B(H   8,O   6)                  0.9644         0.511542   
     13. B(H   8,O   3)                  2.1437         0.006721   
     14. B(O   9,H   1)                  1.6879         0.035866   
     15. B(H  10,O   9)                  0.9747         0.492709   
     16. B(H  10,H   1)                  2.1127         0.001610   
     17. B(H  11,H   1)                  2.1785         0.001265   
     18. B(H  11,O   9)                  0.9658         0.509085   
     19. B(O  12,H  10)                  1.8814         0.017616   
     20. B(H  13,H  10)                  2.2925         0.000832   
     21. B(H  13,H   4)                  2.3735         0.000618   
     22. B(H  13,O   3)                  1.9744         0.012521   
     23. B(H  13,O  12)                  0.9670         0.506751   
     24. B(H  14,H  10)                  2.1042         0.001661   
     25. B(H  14,O  12)                  0.9661         0.508483   
     26. B(O  15,H  11)                  2.1094         0.007624   
     27. B(O  15,H  14)                  2.0613         0.009096   
     28. B(H  16,H   8)                  2.2625         0.000929   
     29. B(H  16,H   7)                  2.2340         0.001031   
     30. B(H  16,O   6)                  1.7790         0.025661   
     31. B(H  16,O  15)                  0.9781         0.486435   
     32. B(H  17,O  15)                  0.9585         0.522917   
     33. A(H   2,O   0,H   7)          133.7319         0.187530   
     34. A(H   2,O   0,H   4)          130.0927         0.199483   
     35. A(H   1,O   0,H   4)          103.7647         0.196736   
     36. A(H   1,O   0,H   7)           98.3581         0.185080   
     37. A(H   4,O   0,H   7)           78.1339         0.135627   
     38. A(H   1,O   0,H   2)          106.4011         0.316661   
     39. A(H   4,H   1,H  10)           92.2664         0.098514   
     40. A(O   0,H   1,H  10)          143.7987         0.138745   
     41. A(H  10,H   1,H  11)           40.8936         0.099554   
     42. A(H   7,H   1,O   9)          114.4518         0.111784   
     43. A(O   9,H   1,H  10)           26.8601         0.116813   
     44. A(H   4,H   1,H   7)           62.9514         0.096794   
     45. A(O   0,H   1,O   9)          168.4624         0.213125   
     46. A(O   0,H   1,H   7)           57.0737         0.129750   
     47. A(O   0,H   1,H  11)          148.2370         0.136099   
     48. A(H   4,H   1,O   9)          118.6751         0.112740   
     49. A(O   9,H   1,H  11)           25.0555         0.115334   
     50. A(H   4,H   1,H  11)          117.5949         0.098008   
     51. A(H   7,H   1,H  10)          108.4971         0.098131   
     52. A(O   0,H   1,H   4)           51.5943         0.131460   
     53. A(H   7,H   1,H  11)           91.1688         0.097645   
     54. A(H   4,O   3,H   8)           87.1308         0.175094   
     55. A(H   5,O   3,H  13)          122.5988         0.189286   
     56. A(H   4,O   3,H  13)          101.8549         0.188112   
     57. A(H   4,O   3,H   5)          106.2671         0.319621   
     58. A(H   8,O   3,H  13)           92.0018         0.126438   
     59. A(H   5,O   3,H   8)          137.6745         0.176114   
     60. A(O   0,H   4,H  13)          110.3870         0.108435   
     61. A(H   7,H   4,H   8)           36.8628         0.096263   
     62. A(O   3,H   4,H  13)           54.4967         0.129578   
     63. A(O   0,H   4,O   3)          154.6816         0.198163   
     64. A(H   7,H   4,H  13)           95.7328         0.095885   
     65. A(O   3,H   4,H   8)           67.9887         0.131802   
     66. A(O   0,H   4,H   1)           24.6410         0.109606   
     67. A(H   1,H   4,H   7)           59.5179         0.096300   
     68. A(H   8,H   4,H  13)           78.5433         0.096620   
     69. A(H   1,H   4,H  13)           86.4159         0.096659   
     70. A(O   0,H   4,H   8)           90.1314         0.109500   
     71. A(H   1,H   4,H   8)           90.8907         0.097079   
     72. A(O   0,H   4,H   7)           53.4534         0.107523   
     73. A(O   3,H   4,H   7)          104.5508         0.127674   
     74. A(H   1,H   4,O   3)          137.6694         0.132023   
     75. A(H   7,O   6,H   8)          102.1882         0.319557   
     76. A(H   8,O   6,H  16)          107.3567         0.206405   
     77. A(H   7,O   6,H  16)          104.9882         0.206119   
     78. A(O   0,H   7,H   1)           24.5682         0.106636   
     79. A(H   1,H   7,O   6)          133.7018         0.130478   
     80. A(O   0,H   7,O   6)          148.5058         0.186795   
     81. A(H   1,H   7,H  16)           89.6360         0.097255   
     82. A(O   0,H   7,H  16)          113.3648         0.108463   
     83. A(O   6,H   7,H  16)           50.2853         0.134775   
     84. A(H   4,H   7,H  16)          102.7743         0.096732   
     85. A(H   1,H   7,H   4)           57.5306         0.096006   
     86. A(O   0,H   7,H   4)           48.4127         0.105519   
     87. A(H   4,H   7,O   6)          104.3119         0.127850   
     88. A(O   3,H   8,O   6)          136.0167         0.175696   
     89. A(O   3,H   8,H  16)          112.2126         0.105810   
     90. A(O   6,H   8,H  16)           48.6350         0.133814   
     91. A(O   3,H   8,H   4)           24.8805         0.105168   
     92. A(H   4,H   8,H  16)          105.8401         0.097357   
     93. A(H   4,H   8,O   6)          113.0860         0.132101   
     94. A(H   1,O   9,H  11)          107.1996         0.215510   
     95. A(H  10,O   9,H  11)          101.2843         0.317917   
     96. A(H   1,O   9,H  10)          101.6553         0.214578   
     97. A(O  12,H  10,H  14)           27.3281         0.112848   
     98. A(H   1,H  10,H  14)          113.1019         0.100226   
     99. A(H   1,H  10,O   9)           51.4846         0.139327   
    100. A(O   9,H  10,H  14)          129.1181         0.139686   
    101. A(H  13,H  10,H  14)           40.3276         0.098668   
    102. A(O  12,H  10,H  13)           24.3306         0.109392   
    103. A(H   1,H  10,H  13)           93.1702         0.098599   
    104. A(O   9,H  10,H  13)          139.6853         0.132341   
    105. A(H   1,H  10,O  12)          116.7377         0.112679   
    106. A(O   9,H  10,O  12)          154.1020         0.195912   
    107. A(H   1,H  11,O   9)           47.7450         0.137004   
    108. A(H   1,H  11,O  15)          110.3754         0.107548   
    109. A(O   9,H  11,O  15)          138.4136         0.178108   
    110. A(H  13,O  12,H  14)          104.2434         0.319316   
    111. A(H  10,O  12,H  14)           89.2840         0.196678   
    112. A(H  10,O  12,H  13)          102.3870         0.196595   
    113. A(H   4,H  13,O  12)          139.3159         0.129774   
    114. A(O   3,H  13,O  12)          162.0699         0.188593   
    115. A(H   4,H  13,H  10)           86.1220         0.096728   
    116. A(O   3,H  13,H  10)          109.5712         0.107876   
    117. A(H  10,H  13,O  12)           53.2824         0.132618   
    118. A(O   3,H  13,H   4)           23.6483         0.106645   
    119. A(H  10,H  14,O  15)           86.4741         0.109534   
    120. A(O  12,H  14,O  15)          147.7081         0.181715   
    121. A(H  10,H  14,O  12)           63.3879         0.140049   
    122. A(H  11,O  15,H  14)           77.8701         0.124834   
    123. A(H  14,O  15,H  17)          131.7227         0.182304   
    124. A(H  14,O  15,H  16)           98.3087         0.180790   
    125. A(H  16,O  15,H  17)          105.9349         0.318643   
    126. A(H  11,O  15,H  17)          136.1515         0.178650   
    127. A(H  11,O  15,H  16)           98.5830         0.177194   
    128. A(H   7,H  16,H   8)           39.0568         0.097897   
    129. A(O   6,H  16,H   8)           24.0083         0.111765   
    130. A(H   8,H  16,O  15)          147.7059         0.133307   
    131. A(O   6,H  16,H   7)           24.7265         0.112310   
    132. A(H   7,H  16,O  15)          145.3191         0.134367   
    133. A(O   6,H  16,O  15)          167.0604         0.205076   
    134. D(O   9,H   1,O   0,H   4)     34.7170         0.390938   
    135. D(H   7,H   1,O   0,H   4)     79.7475         0.390938   
    136. D(H  10,H   1,O   0,H   7)    -75.8291         0.390938   
    137. D(O   9,H   1,O   0,H   7)    -45.0305         0.390938   
    138. D(H   4,H   1,O   0,H   2)    139.7559         0.390938   
    139. D(H  11,H   1,O   0,H   2)   -139.3059         0.390938   
    140. D(H   4,H   1,O   0,H   7)    -79.7475         0.390938   
    141. D(H  10,H   1,O   0,H   4)      3.9184         0.390938   
    142. D(O   9,H   1,O   0,H   2)    174.4729         0.390938   
    143. D(H  11,H   1,O   0,H   4)     80.9382         0.390938   
    144. D(H  11,H   1,O   0,H   7)      1.1907         0.390938   
    145. D(H   7,H   1,O   0,H   2)   -140.4966         0.390938   
    146. D(H  10,H   1,O   0,H   2)    143.6742         0.390938   
    147. D(H   8,H   4,H   1,H   7)     20.3389         0.001510   
    148. D(O   0,H   4,H   1,H   7)    -68.0341         0.001510   
    149. D(H  13,H   4,O   0,H   7)     81.7890         0.001789   
    150. D(O   0,H   4,H   1,H  10)   -177.6851         0.001510   
    151. D(H   8,H   4,O   3,H   5)   -139.1571         0.453874   
    152. D(H   7,H   4,O   3,H   5)   -143.9499         0.453874   
    153. D(H   1,H   4,O   0,H   2)   -125.8907         0.001789   
    154. D(H  13,H   4,O   0,H   2)   -139.9246         0.001789   
    155. D(H   1,H   4,O   3,H   8)    -65.2352         0.453874   
    156. D(H   7,H   4,H   1,O   0)     68.0341         0.001510   
    157. D(O   3,H   4,H   1,O   0)    145.7197         0.001510   
    158. D(H   1,H   4,O   0,H   7)     95.8229         0.001789   
    159. D(O   3,H   4,H   1,H  10)    -31.9654         0.001510   
    160. D(H   8,H   4,O   3,H  13)     91.4449         0.453874   
    161. D(O   3,H   4,O   0,H   1)    -62.4893         0.001789   
    162. D(H   7,H   4,O   3,H   8)     -4.7928         0.453874   
    163. D(O   3,H   4,O   0,H   2)    171.6200         0.001789   
    164. D(H   8,H   4,O   0,H   1)    -91.8501         0.001789   
    165. D(H   7,H   4,O   0,H   1)    -95.8229         0.001789   
    166. D(H  13,H   4,H   1,H  10)    -10.8498         0.001510   
    167. D(H   8,H   4,H   1,O   9)    -84.1669         0.001510   
    168. D(H   7,H   4,O   0,H   2)    138.2864         0.001789   
    169. D(H  13,H   4,O   0,H   1)    -14.0339         0.001789   
    170. D(H  13,H   4,O   3,H   5)    129.3980         0.453874   
    171. D(H   1,H   4,O   3,H  13)     26.2097         0.453874   
    172. D(H   7,H   4,H   1,O   9)   -104.5059         0.001510   
    173. D(H   8,H   4,H   1,H  10)    -89.3120         0.001510   
    174. D(H   7,H   4,H   1,H  11)    -76.0525         0.001510   
    175. D(H  13,H   4,H   1,H  11)     22.7486         0.001510   
    176. D(H   8,H   4,O   0,H   7)      3.9728         0.001789   
    177. D(H   7,H   4,H   1,H  10)   -109.6510         0.001510   
    178. D(H   8,H   4,H   1,O   0)     88.3731         0.001510   
    179. D(H  13,H   4,H   1,H   7)     98.8012         0.001510   
    180. D(H   8,H   4,H   1,H  11)    -55.7136         0.001510   
    181. D(H   8,H   4,O   0,H   2)    142.2592         0.001789   
    182. D(O   3,H   4,H   1,O   9)    -26.8203         0.001510   
    183. D(H   1,H   4,O   3,H   5)    155.6076         0.453874   
    184. D(O   0,H   4,H   1,H  11)   -144.0867         0.001510   
    185. D(H  13,H   4,H   1,O   9)     -5.7047         0.001510   
    186. D(O   0,H   4,H   1,O   9)   -172.5400         0.001510   
    187. D(O   3,H   4,O   0,H   7)     33.3335         0.001789   
    188. D(H  13,H   4,H   1,O   0)    166.8353         0.001510   
    189. D(O   0,H   4,O   3,H   5)   -171.0852         0.453874   
    190. D(H  13,H   4,O   3,H   8)    -91.4449         0.453874   
    191. D(O   3,H   4,H   1,H  11)      1.6331         0.001510   
    192. D(H   7,H   4,O   3,H  13)     86.6521         0.453874   
    193. D(O   3,H   4,H   1,H   7)     77.6856         0.001510   
    194. D(O   0,H   4,O   3,H   8)    -31.9280         0.453874   
    195. D(O   0,H   4,O   3,H  13)     59.5169         0.453874   
    196. D(O   6,H   7,O   0,H   1)     67.0798         0.001597   
    197. D(H  16,H   7,O   6,H   8)    111.9486         0.421007   
    198. D(H   4,H   7,O   6,H   8)     17.0878         0.421007   
    199. D(H   1,H   7,O   6,H  16)    -36.3649         0.421007   
    200. D(H  16,H   7,H   4,O   0)    110.0283         0.001504   
    201. D(H  16,H   7,H   4,H   8)    -63.3399         0.001504   
    202. D(H  16,H   7,H   4,H   1)     81.2578         0.001504   
    203. D(O   0,H   7,O   6,H  16)    -68.3506         0.421007   
    204. D(H  16,H   7,H   4,O   3)    -55.9208         0.001504   
    205. D(O   0,H   7,O   6,H   8)     43.5981         0.421007   
    206. D(H   1,H   7,H   4,H  13)    -82.4150         0.001504   
    207. D(H   4,H   7,O   6,H  16)    -94.8609         0.421007   
    208. D(H   1,H   7,O   6,H   8)     75.5837         0.421007   
    209. D(O   0,H   7,H   4,H   8)   -173.3681         0.001504   
    210. D(O   0,H   7,H   4,H  13)   -111.1855         0.001504   
    211. D(O   0,H   7,H   4,H   1)    -28.7705         0.001504   
    212. D(O   0,H   7,H   4,O   3)   -165.9490         0.001504   
    213. D(O   6,H   7,H   4,H  13)     50.6489         0.001504   
    214. D(O   6,H   7,H   4,O   0)    161.8343         0.001504   
    215. D(O   6,H   7,H   4,H   1)    133.0638         0.001504   
    216. D(H  16,H   7,H   1,H  11)     15.2163         0.001506   
    217. D(H  16,H   7,H   1,H  10)    -22.5565         0.001506   
    218. D(H  16,H   7,H   1,O   9)      5.6467         0.001506   
    219. D(H   4,H   7,H   1,H  10)     82.8775         0.001506   
    220. D(H   4,H   7,H   1,O   0)    -59.9766         0.001506   
    221. D(O   0,H   7,H   1,H   4)     59.9766         0.001506   
    222. D(H  16,H   7,H   1,H   4)   -105.4340         0.001506   
    223. D(O   6,H   7,H   4,O   3)     -4.1147         0.001504   
    224. D(O   0,H   7,H   1,H  11)   -179.3731         0.001506   
    225. D(H   4,H   7,H   1,O   9)    111.0807         0.001506   
    226. D(O   0,H   7,H   1,H  10)    142.8541         0.001506   
    227. D(O   6,H   7,H   4,H   8)    -11.5338         0.001504   
    228. D(O   0,H   7,H   1,O   9)    171.0573         0.001506   
    229. D(H  16,H   7,H   1,O   0)   -165.4106         0.001506   
    230. D(O   6,H   7,H   1,H   4)    -78.2977         0.001506   
    231. D(O   6,H   7,H   1,H  11)     42.3526         0.001506   
    232. D(H   1,H   7,H   4,O   3)   -137.1786         0.001504   
    233. D(H   1,H   7,H   4,O   0)     28.7705         0.001504   
    234. D(H   4,H   7,H   1,H  11)    120.6503         0.001506   
    235. D(H   1,H   7,H   4,H   8)   -144.5976         0.001504   
    236. D(O   6,H   7,H   1,O   9)     32.7830         0.001506   
    237. D(O   6,H   7,H   1,O   0)   -138.2743         0.001506   
    238. D(H  16,H   7,O   0,H   4)    -86.4826         0.001597   
    239. D(H  16,H   7,H   4,H  13)     -1.1572         0.001504   
    240. D(O   6,H   7,H   1,H  10)      4.5798         0.001506   
    241. D(H  16,H   7,O   0,H   2)    138.3043         0.001597   
    242. D(O   6,H   7,O   0,H   4)    -35.3282         0.001597   
    243. D(H   4,H   7,O   0,H   2)   -135.2132         0.001597   
    244. D(H   1,H   7,O   0,H   4)   -102.4079         0.001597   
    245. D(H   1,H   7,O   0,H   2)    122.3789         0.001597   
    246. D(H  16,H   7,O   0,H   1)     15.9254         0.001597   
    247. D(H   4,H   7,O   0,H   1)    102.4079         0.001597   
    248. D(O   6,H   7,O   0,H   2)   -170.5413         0.001597   
    249. D(O   6,H   8,H   4,O   0)      6.8718         0.001508   
    250. D(O   6,H   8,H   4,H   1)    -17.7587         0.001508   
    251. D(O   6,H   8,H   4,O   3)   -160.0569         0.001508   
    252. D(H  16,H   8,O   3,H  13)    -22.1284         0.001531   
    253. D(H  16,H   8,O   3,H   5)   -169.1613         0.001531   
    254. D(O   6,H   8,H   4,H  13)   -103.9202         0.001508   
    255. D(H  16,H   8,O   3,H   4)     79.6464         0.001531   
    256. D(H   4,H   8,O   3,H  13)   -101.7748         0.001531   
    257. D(H   4,H   8,O   3,H   5)    111.1922         0.001531   
    258. D(O   6,H   8,O   3,H  13)    -74.9137         0.001531   
    259. D(O   6,H   8,O   3,H   5)    138.0534         0.001531   
    260. D(O   6,H   8,O   3,H   4)     26.8611         0.001531   
    261. D(H   4,H   8,O   6,H   7)    -19.0169         0.401285   
    262. D(H  16,H   8,H   4,H   1)     33.5003         0.001508   
    263. D(H  16,H   8,H   4,H  13)    -52.6613         0.001508   
    264. D(H   4,H   8,O   6,H  16)     91.1475         0.401285   
    265. D(O   3,H   8,O   6,H   7)    -30.9427         0.401285   
    266. D(H  16,H   8,H   4,O   0)     58.1308         0.001508   
    267. D(O   3,H   8,O   6,H  16)     79.2216         0.401285   
    268. D(H  16,H   8,H   4,O   3)   -108.7979         0.001508   
    269. D(O   3,H   8,H   4,H   7)    172.2523         0.001508   
    270. D(H  16,H   8,H   4,H   7)     63.4544         0.001508   
    271. D(O   3,H   8,H   4,H  13)     56.1366         0.001508   
    272. D(O   3,H   8,H   4,H   1)    142.2982         0.001508   
    273. D(H  16,H   8,O   6,H   7)   -110.1644         0.401285   
    274. D(O   3,H   8,H   4,O   0)    166.9287         0.001508   
    275. D(O   6,H   8,H   4,H   7)     12.1955         0.001508   
    276. D(H  11,O   9,H   1,H   7)     23.1085         0.002499   
    277. D(H  11,O   9,H   1,H   4)     94.4037         0.002499   
    278. D(H  11,O   9,H   1,H  10)    105.8430         0.002499   
    279. D(H  11,O   9,H   1,O   0)     63.8275         0.002499   
    280. D(H  10,O   9,H   1,H   7)    -82.7345         0.002499   
    281. D(H  10,O   9,H   1,H   4)    -11.4393         0.002499   
    282. D(H  10,O   9,H   1,H  11)   -105.8430         0.002499   
    283. D(H  10,O   9,H   1,O   0)    -42.0155         0.002499   
    284. D(H  14,H  10,O   9,H   1)     89.9507         0.392975   
    285. D(H  13,H  10,O   9,H   1)     34.0313         0.392975   
    286. D(H  13,H  10,O   9,H  11)    -76.3972         0.392975   
    287. D(O  12,H  10,O   9,H   1)     71.1741         0.392975   
    288. D(H   1,H  10,O   9,H  11)   -110.4285         0.392975   
    289. D(H  14,H  10,H   1,H   7)    -14.7013         0.001536   
    290. D(H  14,H  10,H   1,H   4)     47.4815         0.001536   
    291. D(H  14,H  10,H   1,O   9)   -122.4898         0.001536   
    292. D(H  14,H  10,H   1,O   0)     44.4095         0.001536   
    293. D(H  13,H  10,H   1,H   7)    -50.9492         0.001536   
    294. D(H  13,H  10,H   1,H   4)     11.2335         0.001536   
    295. D(H  13,H  10,H   1,H  11)   -120.2517         0.001536   
    296. D(H  13,H  10,H   1,O   9)   -158.7377         0.001536   
    297. D(H  13,H  10,H   1,O   0)      8.1615         0.001536   
    298. D(O  12,H  10,H   1,H   7)    -44.6371         0.001536   
    299. D(H  14,H  10,H   1,H  11)    -84.0037         0.001536   
    300. D(O  12,H  10,H   1,H   4)     17.5457         0.001536   
    301. D(O  12,H  10,H   1,H  11)   -113.9396         0.001536   
    302. D(O  12,H  10,H   1,O   9)   -152.4256         0.001536   
    303. D(O  12,H  10,O   9,H  11)    -39.2544         0.392975   
    304. D(O  12,H  10,H   1,O   0)     14.4736         0.001536   
    305. D(O   9,H  10,H   1,H   7)    107.7885         0.001536   
    306. D(O   9,H  10,H   1,H   4)    169.9713         0.001536   
    307. D(H  14,H  10,O   9,H  11)    -20.4778         0.392975   
    308. D(O   9,H  10,H   1,H  11)     38.4860         0.001536   
    309. D(O   9,H  10,H   1,O   0)    166.8992         0.001536   
    310. D(O  15,H  11,O   9,H   1)    -71.6360         0.363112   
    311. D(H   1,H  11,O   9,H  10)    106.1060         0.363112   
    312. D(O  15,H  11,H   1,H   7)    -21.2837         0.001520   
    313. D(O  15,H  11,H   1,H   4)     38.5469         0.001520   
    314. D(O  15,H  11,H   1,H  10)     96.1782         0.001520   
    315. D(O  15,H  11,H   1,O   9)    137.7790         0.001520   
    316. D(O  15,H  11,H   1,O   0)    -22.2833         0.001520   
    317. D(O   9,H  11,H   1,H   7)   -159.0627         0.001520   
    318. D(O   9,H  11,H   1,H   4)    -99.2321         0.001520   
    319. D(O  15,H  11,O   9,H  10)     34.4700         0.363112   
    320. D(O   9,H  11,H   1,H  10)    -41.6008         0.001520   
    321. D(O   9,H  11,H   1,O   0)   -160.0623         0.001520   
    322. D(H  14,O  12,H  10,H  13)    104.4291         0.001713   
    323. D(H  14,O  12,H  10,H   1)     88.9762         0.001713   
    324. D(H  14,O  12,H  10,O   9)     32.9544         0.001713   
    325. D(H  13,O  12,H  10,H  14)   -104.4291         0.001713   
    326. D(H  13,O  12,H  10,H   1)    -15.4529         0.001713   
    327. D(H  13,O  12,H  10,O   9)    -71.4747         0.001713   
    328. D(H  10,H  13,O  12,H  14)    -92.4388         0.391647   
    329. D(H   4,H  13,O  12,H  14)    -88.0369         0.391647   
    330. D(O   3,H  13,O  12,H  10)     18.6224         0.391647   
    331. D(O   3,H  13,O  12,H  14)    -73.8164         0.391647   
    332. D(H   4,H  13,H  10,H  14)   -133.7315         0.001509   
    333. D(H   4,H  13,H  10,O  12)   -177.1255         0.001509   
    334. D(H   4,H  13,H  10,H   1)    -10.9130         0.001509   
    335. D(H   4,H  13,H  10,O   9)    -36.9251         0.001509   
    336. D(O   3,H  13,H  10,O  12)   -174.0111         0.001509   
    337. D(O   3,H  13,H  10,H   1)     -7.7986         0.001509   
    338. D(O   3,H  13,H  10,O   9)    -33.8106         0.001509   
    339. D(O  12,H  13,H  10,H   1)    166.2125         0.001509   
    340. D(O  12,H  13,H  10,O   9)    140.2004         0.001509   
    341. D(H  10,H  13,H   4,H   8)    101.6434         0.001505   
    342. D(H  10,H  13,H   4,H   7)     68.8670         0.001505   
    343. D(H  10,H  13,H   4,H   1)     10.0053         0.001505   
    344. D(H  10,H  13,H   4,O   0)     15.8195         0.001505   
    345. D(H  10,H  13,H   4,O   3)    172.6679         0.001505   
    346. D(O   3,H  13,H   4,H   8)    -71.0245         0.001505   
    347. D(O   3,H  13,H   4,H   7)   -103.8009         0.001505   
    348. D(O   3,H  13,H   4,H   1)   -162.6626         0.001505   
    349. D(O   3,H  13,H   4,O   0)   -156.8484         0.001505   
    350. D(O  12,H  13,H   4,H   8)     98.1081         0.001505   
    351. D(O  12,H  13,H  10,H  14)     43.3941         0.001509   
    352. D(O  12,H  13,H   4,H   7)     65.3316         0.001505   
    353. D(O  12,H  13,H   4,H   1)      6.4699         0.001505   
    354. D(O  12,H  13,H   4,O   0)     12.2841         0.001505   
    355. D(O   3,H  13,H  10,H  14)   -130.6170         0.001509   
    356. D(O  12,H  13,H   4,O   3)    169.1325         0.001505   
    357. D(H  10,H  13,O   3,H   8)     79.7208         0.001607   
    358. D(H  10,H  13,O   3,H   5)   -126.0594         0.001607   
    359. D(H  10,H  13,O   3,H   4)     -7.7665         0.001607   
    360. D(H   4,H  13,O   3,H   8)     87.4873         0.001607   
    361. D(H   4,H  13,O   3,H   5)   -118.2929         0.001607   
    362. D(O  12,H  13,O   3,H   8)     63.9573         0.001607   
    363. D(H   4,H  13,O  12,H  10)      4.4019         0.391647   
    364. D(O  12,H  13,O   3,H   5)   -141.8229         0.001607   
    365. D(O  12,H  13,O   3,H   4)    -23.5300         0.001607   
    366. D(O  15,H  14,O  12,H  10)    -22.8456         0.362004   
    367. D(O  15,H  14,O  12,H  13)     79.7555         0.362004   
    368. D(H  10,H  14,O  12,H  13)    102.6011         0.362004   
    369. D(O  15,H  14,H  10,H  13)    129.9413         0.001532   
    370. D(O  15,H  14,H  10,O  12)    168.0060         0.001532   
    371. D(O  15,H  14,H  10,H   1)     64.1215         0.001532   
    372. D(O  15,H  14,H  10,O   9)      5.8384         0.001532   
    373. D(O  12,H  14,H  10,H  13)    -38.0647         0.001532   
    374. D(O  12,H  14,H  10,H   1)   -103.8845         0.001532   
    375. D(O  12,H  14,H  10,O   9)   -162.1676         0.001532   
    376. D(H  11,O  15,H  14,H  10)      5.0305         0.001552   
    377. D(H  11,O  15,H  14,O  12)     25.3818         0.001552   
    378. D(H  17,O  15,H  14,H  10)    147.8424         0.001552   
    379. D(H  17,O  15,H  14,O  12)    168.1937         0.001552   
    380. D(H  16,O  15,H  14,H  10)    -92.0279         0.001552   
    381. D(H  16,O  15,H  14,O  12)    -71.6766         0.001552   
    382. D(H  14,O  15,H  11,H   1)    -77.5111         0.001537   
    383. D(H  14,O  15,H  11,O   9)    -28.9769         0.001537   
    384. D(H  17,O  15,H  11,H   1)    143.1225         0.001537   
    385. D(H  17,O  15,H  11,O   9)   -168.3433         0.001537   
    386. D(H  16,O  15,H  11,H   1)     19.2102         0.001537   
    387. D(H  16,O  15,H  11,O   9)     67.7444         0.001537   
    388. D(O  15,H  16,O   6,H   7)     47.7996         0.001929   
    389. D(H   8,H  16,O  15,H  14)     -1.5238         0.380237   
    390. D(H   8,H  16,O  15,H  11)    -80.4121         0.380237   
    391. D(H   8,H  16,O  15,H  17)    136.3065         0.380237   
    392. D(H   7,H  16,O  15,H  11)     -5.9413         0.380237   
    393. D(H   7,H  16,O  15,H  17)   -149.2228         0.380237   
    394. D(O   6,H  16,O  15,H  14)     39.9513         0.380237   
    395. D(O   6,H  16,O  15,H  17)    177.7815         0.380237   
    396. D(H   7,H  16,H   8,H   4)    -67.9603         0.001510   
    397. D(H   7,H  16,H   8,O   3)    -93.4414         0.001510   
    398. D(H   7,H  16,H   8,O   6)     39.0921         0.001510   
    399. D(O   6,H  16,H   8,H   4)   -107.0524         0.001510   
    400. D(O   6,H  16,H   8,O   3)   -132.5335         0.001510   
    401. D(O  15,H  16,H   8,H   4)     51.5708         0.001510   
    402. D(O  15,H  16,H   8,O   3)     26.0898         0.001510   
    403. D(O  15,H  16,H   8,O   6)    158.6233         0.001510   
    404. D(H   8,H  16,H   7,H   4)     60.2840         0.001513   
    405. D(H   8,H  16,H   7,H   1)    116.7848         0.001513   
    406. D(H   8,H  16,H   7,O   0)    110.2339         0.001513   
    407. D(H   8,H  16,H   7,O   6)    -37.8326         0.001513   
    408. D(O   6,H  16,H   7,H   4)     98.1165         0.001513   
    409. D(O   6,H  16,H   7,H   1)    154.6174         0.001513   
    410. D(O   6,H  16,H   7,O   0)    148.0665         0.001513   
    411. D(O   6,H  16,O  15,H  11)    -38.9370         0.380237   
    412. D(O  15,H  16,H   7,H   4)    -64.9339         0.001513   
    413. D(O  15,H  16,H   7,H   1)     -8.4331         0.001513   
    414. D(O  15,H  16,H   7,O   0)    -14.9839         0.001513   
    415. D(H   7,H  16,O  15,H  14)     72.9470         0.380237   
    416. D(O  15,H  16,H   7,O   6)   -163.0504         0.001513   
    417. D(H   8,H  16,O   6,H   7)    108.2199         0.001929   
    418. D(H   7,H  16,O   6,H   8)   -108.2199         0.001929   
    419. D(O  15,H  16,O   6,H   8)    -60.4202         0.001929   
    -----------------------------------------------------------------

Number of atoms                         .... 18
Number of degrees of freedom            .... 419

         *************************************************************
         *                GEOMETRY OPTIMIZATION CYCLE   1            *
         *************************************************************
---------------------------------
CARTESIAN COORDINATES (ANGSTROEM)
---------------------------------
  O     -1.511782   -0.232325    1.434522
  H     -0.613900   -0.631798    1.542476
  H     -2.015087   -0.484249    2.210210
  O     -1.744551   -0.350365   -1.322141
  H     -1.890020   -0.475498   -0.368433
  H     -2.508917   -0.726304   -1.761973
  O     -0.568902    2.010658   -0.079448
  H     -0.957800    1.521230    0.658817
  H     -0.991476    1.598457   -0.842120
  O      0.972064   -1.194842    1.413465
  H      0.986177   -1.536208    0.500658
  H      1.544338   -0.420911    1.334663
  O      0.983916   -1.359847   -1.372465
  H      0.077993   -1.073694   -1.552782
  H      1.480193   -0.535792   -1.283351
  O      2.003223    1.063257   -0.092296
  H      1.144078    1.530799   -0.098089
  H      2.672690    1.741694   -0.193152

----------------------------
CARTESIAN COORDINATES (A.U.)
----------------------------
  NO LB      ZA    FRAG     MASS         X           Y           Z
   0 O     8.0000    0    15.999   -2.856854   -0.439031    2.710854
   1 H     1.0000    0     1.008   -1.160103   -1.193925    2.914857
   2 H     1.0000    0     1.008   -3.807963   -0.915098    4.176692
   3 O     8.0000    0    15.999   -3.296724   -0.662094   -2.498484
   4 H     1.0000    0     1.008   -3.571620   -0.898561   -0.696237
   5 H     1.0000    0     1.008   -4.741166   -1.372516   -3.329646
   6 O     8.0000    0    15.999   -1.075069    3.799593   -0.150135
   7 H     1.0000    0     1.008   -1.809980    2.874708    1.244984
   8 H     1.0000    0     1.008   -1.873618    3.020646   -1.591376
   9 O     8.0000    0    15.999    1.836935   -2.257924    2.671062
  10 H     1.0000    0     1.008    1.863604   -2.903012    0.946107
  11 H     1.0000    0     1.008    2.918376   -0.795407    2.522148
  12 O     8.0000    0    15.999    1.859332   -2.569738   -2.593583
  13 H     1.0000    0     1.008    0.147385   -2.028988   -2.934333
  14 H     1.0000    0     1.008    2.797159   -1.012500   -2.425182
  15 O     8.0000    0    15.999    3.785543    2.009265   -0.174414
  16 H     1.0000    0     1.008    2.161994    2.892791   -0.185361
  17 H     1.0000    0     1.008    5.050652    3.291325   -0.365004

--------------------------------
INTERNAL COORDINATES (ANGSTROEM)
--------------------------------
 O      0   0   0     0.000000000000     0.00000000     0.00000000
 H      1   0   0     0.988647980714     0.00000000     0.00000000
 H      1   2   0     0.958370230206   106.40107860     0.00000000
 O      1   2   3     2.768990022468    99.66154740   212.47552383
 H      4   1   2     0.972819842989    16.67729903   119.09110810
 H      4   1   2     0.958664540859   122.71743384   129.27539765
 O      5   4   1     2.830165499840    85.25660701    25.76878351
 H      7   5   4     0.967376158386    56.34640489   176.00376880
 H      7   5   4     0.964441304311    48.64483482    18.50046316
 O      2   1   3     1.687881569706   168.46243150   174.47289154
 H     10   2   1     0.974652010706   101.65533573   317.98448536
 H     10   2   1     0.965751768852   107.19959144    63.82750841
 O     11  10   2     1.881408538189   154.10203042    71.17408028
 H     13  11  10     0.967002710351   102.38699361   288.52530951
 H     13  11  10     0.966073914745    89.28401566    32.95438596
 O     15  13  11     2.061341819865   147.70808320   337.15441420
 H     16  15  13     0.978140691127    98.30865326   288.32341443
 H     16  15  13     0.958454359787   131.72266037   168.19370025

---------------------------
INTERNAL COORDINATES (A.U.)
---------------------------
 O      0   0   0     0.000000000000     0.00000000     0.00000000
 H      1   0   0     1.868273926403     0.00000000     0.00000000
 H      1   2   0     1.811057269992   106.40107860     0.00000000
 O      1   2   3     5.232632810026    99.66154740   212.47552383
 H      4   1   2     1.838363080894    16.67729903   119.09110810
 H      4   1   2     1.811613436525   122.71743384   129.27539765
 O      5   4   1     5.348237708370    85.25660701    25.76878351
 H      7   5   4     1.828076007834    56.34640489   176.00376880
 H      7   5   4     1.822529937389    48.64483482    18.50046316
 O      2   1   3     3.189633913237   168.46243150   174.47289154
 H     10   2   1     1.841825376111   101.65533573   317.98448536
 H     10   2   1     1.825006356481   107.19959144    63.82750841
 O     11  10   2     3.555346883199   154.10203042    71.17408028
 H     13  11  10     1.827370293324   102.38699361   288.52530951
 H     13  11  10     1.825615123993    89.28401566    32.95438596
 O     15  13  11     3.895371507944   147.70808320   337.15441420
 H     16  15  13     1.848418026674    98.30865326   288.32341443
 H     16  15  13     1.811216251860   131.72266037   168.19370025

---------------------
BASIS SET INFORMATION
---------------------
There are 2 groups of distinct atoms

 Group   1 Type O   : 19s6p3d2f contracted to 5s4p3d2f pattern {88111/3111/111/11}
 Group   2 Type H   : 6s3p2d contracted to 4s3p2d pattern {3111/111/11}

Atom   0O    basis set group =>   1
Atom   1H    basis set group =>   2
Atom   2H    basis set group =>   2
Atom   3O    basis set group =>   1
Atom   4H    basis set group =>   2
Atom   5H    basis set group =>   2
Atom   6O    basis set group =>   1
Atom   7H    basis set group =>   2
Atom   8H    basis set group =>   2
Atom   9O    basis set group =>   1
Atom  10H    basis set group =>   2
Atom  11H    basis set group =>   2
Atom  12O    basis set group =>   1
Atom  13H    basis set group =>   2
Atom  14H    basis set group =>   2
Atom  15O    basis set group =>   1
Atom  16H    basis set group =>   2
Atom  17H    basis set group =>   2
---------------------------------
AUXILIARY/J BASIS SET INFORMATION
---------------------------------
There are 2 groups of distinct atoms

 Group   1 Type O   : 12s5p4d2f1g contracted to 6s4p3d1f1g pattern {711111/2111/211/2/1}
 Group   2 Type H   : 5s2p1d contracted to 3s1p1d pattern {311/2/1}

Atom   0O    basis set group =>   1
Atom   1H    basis set group =>   2
Atom   2H    basis set group =>   2
Atom   3O    basis set group =>   1
Atom   4H    basis set group =>   2
Atom   5H    basis set group =>   2
Atom   6O    basis set group =>   1
Atom   7H    basis set group =>   2
Atom   8H    basis set group =>   2
Atom   9O    basis set group =>   1
Atom  10H    basis set group =>   2
Atom  11H    basis set group =>   2
Atom  12O    basis set group =>   1
Atom  13H    basis set group =>   2
Atom  14H    basis set group =>   2
Atom  15O    basis set group =>   1
Atom  16H    basis set group =>   2
Atom  17H    basis set group =>   2


           ************************************************************
           *        Program running with 24 parallel MPI-processes    *
           *              working on a common directory               *
           ************************************************************
------------------------------------------------------------------------------
                           ORCA GTO INTEGRAL CALCULATION
                           -- RI-GTO INTEGRALS CHOSEN --
------------------------------------------------------------------------------

                         BASIS SET STATISTICS AND STARTUP INFO

Gaussian basis set:
 # of primitive gaussian shells          ...  312
 # of primitive gaussian functions       ...  696
 # of contracted shells                  ...  192
 # of contracted basis functions         ...  552
 Highest angular momentum                ...    3
 Maximum contraction depth               ...    8
Auxiliary gaussian basis set:
 # of primitive gaussian shells          ...  240
 # of primitive gaussian functions       ...  612
 # of contracted shells                  ...  150
 # of contracted aux-basis functions     ...  426
 Highest angular momentum                ...    4
 Maximum contraction depth               ...    7
Ratio of auxiliary to basis functions    ...  0.77
Integral package used                  ... LIBINT
 One Electron integrals                  ... done
 Ordering auxiliary basis shells         ... done
 Integral threshhold             Thresh  ...  2.500e-11
 Primitive cut-off               TCut    ...  2.500e-12
 Pre-screening matrix                    ... done
 Shell pair data                         ... 
 Ordering of the shell pairs             ... done (   0.003 sec) 17765 of 18528 pairs
 Determination of significant pairs      ... done (   0.000 sec)
 Creation of shell pair data             ... done (   0.002 sec)
 Storage of shell pair data              ... done (   0.006 sec)
 Shell pair data done in (   0.011 sec)
 Computing two index integrals           ... done
 Cholesky decomposition of the V-matrix  ... done


Timings:
 Total evaluation time                   ...   0.374 sec (  0.006 min)
 One electron matrix time                ...   0.122 sec (  0.002 min) = 32.7%
 Schwartz matrix evaluation time         ...   0.212 sec (  0.004 min) = 56.6%
 Two index repulsion integral time       ...   0.004 sec (  0.000 min) =  1.0%
 Cholesky decomposition of V             ...   0.003 sec (  0.000 min) =  0.8%
 Three index repulsion integral time     ...   0.000 sec (  0.000 min) =  0.0%



           ************************************************************
           *        Program running with 24 parallel MPI-processes    *
           *              working on a common directory               *
           ************************************************************
-------------------------------------------------------------------------------
                                 ORCA SCF
-------------------------------------------------------------------------------

------------
SCF SETTINGS
------------
Hamiltonian:
 Density Functional     Method          .... DFT(GTOs)
 Exchange Functional    Exchange        .... TPSS
 Correlation Functional Correlation     .... TPSS
 LDA part of GGA corr.  LDAOpt          .... PW91-LDA
 Gradients option       PostSCFGGA      .... off
   Density functional embedding theory  .... OFF
   NL short-range parameter             ....  5.000000
 RI-approximation to the Coulomb term is turned on
   Number of auxiliary basis functions  .... 426


General Settings:
 Integral files         IntName         .... 09_H2O_6_prism
 Hartree-Fock type      HFTyp           .... RHF
 Total Charge           Charge          ....    0
 Multiplicity           Mult            ....    1
 Number of Electrons    NEL             ....   60
 Basis Dimension        Dim             ....  552
 Nuclear Repulsion      ENuc            ....    304.8722684032 Eh

Convergence Acceleration:
 DIIS                   CNVDIIS         .... on
   Start iteration      DIISMaxIt       ....    12
   Startup error        DIISStart       ....  0.200000
   # of expansion vecs  DIISMaxEq       ....     5
   Bias factor          DIISBfac        ....   1.050
   Max. coefficient     DIISMaxC        ....  10.000
 Newton-Raphson         CNVNR           .... off
 SOSCF                  CNVSOSCF        .... on
   Start iteration      SOSCFMaxIt      ....   150
   Startup grad/error   SOSCFStart      ....  0.003300
 Level Shifting         CNVShift        .... on
   Level shift para.    LevelShift      ....    0.2500
   Turn off err/grad.   ShiftErr        ....    0.0010
 Zerner damping         CNVZerner       .... off
 Static damping         CNVDamp         .... on
   Fraction old density DampFac         ....    0.7000
   Max. Damping (<1)    DampMax         ....    0.9800
   Min. Damping (>=0)   DampMin         ....    0.0000
   Turn off err/grad.   DampErr         ....    0.1000
 Fernandez-Rico         CNVRico         .... off

SCF Procedure:
 Maximum # iterations   MaxIter         ....   125
 SCF integral mode      SCFMode         .... Direct
   Integral package                     .... LIBINT
 Reset frequency        DirectResetFreq ....    20
 Integral Threshold     Thresh          ....  2.500e-11 Eh
 Primitive CutOff       TCut            ....  2.500e-12 Eh

Convergence Tolerance:
 Convergence Check Mode ConvCheckMode   .... Total+1el-Energy
 Convergence forced     ConvForced      .... 0
 Energy Change          TolE            ....  1.000e-08 Eh
 1-El. energy change                    ....  1.000e-05 Eh
 Orbital Gradient       TolG            ....  1.000e-05
 Orbital Rotation angle TolX            ....  1.000e-05
 DIIS Error             TolErr          ....  5.000e-07


Diagonalization of the overlap matrix:
Smallest eigenvalue                        ... 3.067e-05
Time for diagonalization                   ...    0.039 sec
Threshold for overlap eigenvalues          ... 1.000e-08
Number of eigenvalues below threshold      ... 0
Time for construction of square roots      ...    0.047 sec
Total time needed                          ...    0.087 sec

-------------------
DFT GRID GENERATION
-------------------

General Integration Accuracy     IntAcc      ...  4.670
Radial Grid Type                 RadialGrid  ... Gauss-Chebyshev
Angular Grid (max. acc.)         AngularGrid ... Lebedev-302
Angular grid pruning method      GridPruning ... 3 (G Style)
Weight generation scheme         WeightScheme... Becke
Basis function cutoff            BFCut       ...    1.0000e-11
Integration weight cutoff        WCut        ...    1.0000e-14
Grids for H and He will be reduced by one unit

# of grid points (after initial pruning)     ...  78000 (   0.0 sec)
# of grid points (after weights+screening)   ...  71466 (   0.0 sec)
nearest neighbour list constructed           ...    0.0 sec
Grid point re-assignment to atoms done       ...    0.0 sec
Grid point division into batches done        ...    0.2 sec
Reduced shell lists constructed in    0.2 sec

Total number of grid points                  ...    71466
Total number of batches                      ...     1127
Average number of points per batch           ...       63
Average number of grid points per atom       ...     3970
Average number of shells per batch           ...   143.62 (74.80%)
Average number of basis functions per batch  ...   403.12 (73.03%)
Average number of large shells per batch     ...   117.60 (81.88%)
Average number of large basis fcns per batch ...   322.44 (79.98%)
Maximum spatial batch extension              ...   2.66,  2.86,  2.23 au
Average spatial batch extension              ...   0.04,  0.04,  0.04 au

Time for grid setup =    0.340 sec

------------------------------
INITIAL GUESS: MODEL POTENTIAL
------------------------------
Loading Hartree-Fock densities                     ... done
Calculating cut-offs                               ... done
Setting up the integral package                    ... done
Initializing the effective Hamiltonian             ... done
Starting the Coulomb interaction                   ... done (   0.0 sec)
Reading the grid                                   ... done
Mapping shells                                     ... done
Starting the XC term evaluation                    ... done (   0.2 sec)
  promolecular density results
     # of electrons  =     59.993462020
     EX              =    -52.453698502
     EC              =     -1.950010425
     EX+EC           =    -54.403708928
Transforming the Hamiltonian                       ... done (   0.0 sec)
Diagonalizing the Hamiltonian                      ... done (   0.0 sec)
Back transforming the eigenvectors                 ... done (   0.0 sec)
Now organizing SCF variables                       ... done
                      ------------------
                      INITIAL GUESS DONE (   0.7 sec)
                      ------------------
--------------
SCF ITERATIONS
--------------
ITER       Energy         Delta-E        Max-DP      RMS-DP      [F,P]     Damp
               ***  Starting incremental Fock matrix formation  ***
  0   -458.4264962855   0.000000000000 0.10417557  0.00111674  0.3179819 0.7000
  1   -458.6535779829  -0.227081697378 0.04856878  0.00062905  0.1118142 0.7000
                               ***Turning on DIIS***
  2   -458.7172053102  -0.063627327262 0.05866109  0.00077655  0.0251232 0.0000
  3   -458.8440730496  -0.126867739405 0.01817587  0.00027066  0.0677337 0.0000
  4   -458.8651103472  -0.021037297657 0.00418850  0.00006512  0.0144255 0.0000
  5   -458.8662026599  -0.001092312678 0.00271238  0.00002861  0.0039638 0.0000
                      *** Initiating the SOSCF procedure ***
                           *** Shutting down DIIS ***
                      *** Re-Reading the Fockian *** 
                      *** Removing any level shift *** 
ITER      Energy       Delta-E        Grad      Rot      Max-DP    RMS-DP
  6   -458.86627291  -0.0000702459  0.000312  0.000312  0.001372  0.000016
               *** Restarting incremental Fock matrix formation ***
  7   -458.86629066  -0.0000177539  0.000149  0.000535  0.000865  0.000012
  8   -458.86629169  -0.0000010293  0.000072  0.000082  0.000460  0.000006
  9   -458.86629207  -0.0000003792  0.000041  0.000131  0.000324  0.000004
 10   -458.86629230  -0.0000002318  0.000011  0.000014  0.000053  0.000001
 11   -458.86629230  -0.0000000045  0.000013  0.000014  0.000058  0.000001
                  ***Gradient check signals convergence***
              ***Rediagonalizing the Fockian in SOSCF/NRSCF***

               *****************************************************
               *                     SUCCESS                       *
               *           SCF CONVERGED AFTER  12 CYCLES          *
               *****************************************************


----------------
TOTAL SCF ENERGY
----------------

Total Energy       :         -458.86629232 Eh          -12486.38661 eV

Components:
Nuclear Repulsion  :          304.87226840 Eh            8295.99618 eV
Electronic Energy  :         -763.73856073 Eh          -20782.38279 eV
One Electron Energy:        -1237.56695462 Eh          -33675.90889 eV
Two Electron Energy:          473.82839389 Eh           12893.52609 eV

Virial components:
Potential Energy   :         -915.63024188 Eh          -24915.56556 eV
Kinetic Energy     :          456.76394956 Eh           12429.17895 eV
Virial Ratio       :            2.00460269


DFT components:
N(Alpha)           :       29.999833553190 electrons
N(Beta)            :       29.999833553190 electrons
N(Total)           :       59.999667106380 electrons
E(X)               :      -54.093726175166 Eh       
E(C)               :       -1.997369236999 Eh       
E(XC)              :      -56.091095412165 Eh       
DFET-embed. en.    :        0.000000000000 Eh       

---------------
SCF CONVERGENCE
---------------

  Last Energy change         ...   -2.0085e-08  Tolerance :   1.0000e-08
  Last MAX-Density change    ...    2.0496e-05  Tolerance :   1.0000e-07
  Last RMS-Density change    ...    2.6837e-07  Tolerance :   5.0000e-09
  Last Orbital Gradient      ...    2.2708e-06  Tolerance :   1.0000e-05
  Last Orbital Rotation      ...    3.2623e-06  Tolerance :   1.0000e-05

             **** THE GBW FILE WAS UPDATED (09_H2O_6_prism.gbw) ****
             **** DENSITY FILE WAS UPDATED (09_H2O_6_prism.scfp) ****
             **** ENERGY FILE WAS UPDATED (09_H2O_6_prism.en.tmp) ****
             **** THE GBW FILE WAS UPDATED (09_H2O_6_prism.gbw) ****
             **** DENSITY FILE WAS UPDATED (09_H2O_6_prism.scfp) ****
----------------
ORBITAL ENERGIES
----------------

  NO   OCC          E(Eh)            E(eV) 
   0   2.0000     -18.905453      -514.4435 
   1   2.0000     -18.900833      -514.3178 
   2   2.0000     -18.890223      -514.0291 
   3   2.0000     -18.888947      -513.9944 
   4   2.0000     -18.877848      -513.6924 
   5   2.0000     -18.869900      -513.4761 
   6   2.0000      -0.973129       -26.4802 
   7   2.0000      -0.961231       -26.1564 
   8   2.0000      -0.957065       -26.0431 
   9   2.0000      -0.948296       -25.8044 
  10   2.0000      -0.939782       -25.5728 
  11   2.0000      -0.928853       -25.2754 
  12   2.0000      -0.515130       -14.0174 
  13   2.0000      -0.500084       -13.6080 
  14   2.0000      -0.494476       -13.4554 
  15   2.0000      -0.481742       -13.1089 
  16   2.0000      -0.470915       -12.8143 
  17   2.0000      -0.468145       -12.7389 
  18   2.0000      -0.388366       -10.5680 
  19   2.0000      -0.382157       -10.3990 
  20   2.0000      -0.360288        -9.8039 
  21   2.0000      -0.352818        -9.6007 
  22   2.0000      -0.341195        -9.2844 
  23   2.0000      -0.320344        -8.7170 
  24   2.0000      -0.291260        -7.9256 
  25   2.0000      -0.288416        -7.8482 
  26   2.0000      -0.277796        -7.5592 
  27   2.0000      -0.275667        -7.5013 
  28   2.0000      -0.268854        -7.3159 
  29   2.0000      -0.252622        -6.8742 
  30   0.0000      -0.039682        -1.0798 
  31   0.0000      -0.016388        -0.4459 
  32   0.0000      -0.010129        -0.2756 
  33   0.0000       0.011920         0.3244 
  34   0.0000       0.021261         0.5785 
  35   0.0000       0.025929         0.7056 
  36   0.0000       0.036401         0.9905 
  37   0.0000       0.038471         1.0468 
  38   0.0000       0.040326         1.0973 
  39   0.0000       0.050719         1.3801 
  40   0.0000       0.061570         1.6754 
  41   0.0000       0.062454         1.6994 
  42   0.0000       0.073655         2.0042 
  43   0.0000       0.078772         2.1435 
  44   0.0000       0.082015         2.2318 
  45   0.0000       0.099733         2.7139 
  46   0.0000       0.106113         2.8875 
  47   0.0000       0.107491         2.9250 
  48   0.0000       0.109313         2.9746 
  49   0.0000       0.113330         3.0839 
  50   0.0000       0.121569         3.3081 
  51   0.0000       0.124563         3.3895 
  52   0.0000       0.134292         3.6543 
  53   0.0000       0.138814         3.7773 
  54   0.0000       0.140538         3.8242 
  55   0.0000       0.149338         4.0637 
  56   0.0000       0.154799         4.2123 
  57   0.0000       0.157446         4.2843 
  58   0.0000       0.159469         4.3394 
  59   0.0000       0.162621         4.4251 
  60   0.0000       0.167464         4.5569 
  61   0.0000       0.170642         4.6434 
  62   0.0000       0.172433         4.6921 
  63   0.0000       0.177616         4.8332 
  64   0.0000       0.181380         4.9356 
  65   0.0000       0.191287         5.2052 
  66   0.0000       0.193406         5.2628 
  67   0.0000       0.199904         5.4397 
  68   0.0000       0.208348         5.6694 
  69   0.0000       0.216158         5.8819 
  70   0.0000       0.218326         5.9410 
  71   0.0000       0.228780         6.2254 
  72   0.0000       0.236774         6.4430 
  73   0.0000       0.246022         6.6946 
  74   0.0000       0.257373         7.0035 
  75   0.0000       0.270194         7.3524 
  76   0.0000       0.273472         7.4415 
  77   0.0000       0.288312         7.8454 
  78   0.0000       0.298934         8.1344 
  79   0.0000       0.299642         8.1537 
  80   0.0000       0.305942         8.3251 
  81   0.0000       0.311841         8.4856 
  82   0.0000       0.313944         8.5428 
  83   0.0000       0.315312         8.5801 
  84   0.0000       0.324209         8.8222 
  85   0.0000       0.327183         8.9031 
  86   0.0000       0.333177         9.0662 
  87   0.0000       0.337928         9.1955 
  88   0.0000       0.342727         9.3261 
  89   0.0000       0.345547         9.4028 
  90   0.0000       0.346955         9.4411 
  91   0.0000       0.355549         9.6750 
  92   0.0000       0.361515         9.8373 
  93   0.0000       0.365661         9.9501 
  94   0.0000       0.376001        10.2315 
  95   0.0000       0.379427        10.3247 
  96   0.0000       0.385803        10.4982 
  97   0.0000       0.391625        10.6567 
  98   0.0000       0.399775        10.8784 
  99   0.0000       0.403519        10.9803 
 100   0.0000       0.405475        11.0335 
 101   0.0000       0.413618        11.2551 
 102   0.0000       0.418545        11.3892 
 103   0.0000       0.419163        11.4060 
 104   0.0000       0.426249        11.5988 
 105   0.0000       0.442120        12.0307 
 106   0.0000       0.445975        12.1356 
 107   0.0000       0.451665        12.2904 
 108   0.0000       0.456059        12.4100 
 109   0.0000       0.473481        12.8841 
 110   0.0000       0.480793        13.0830 
 111   0.0000       0.482780        13.1371 
 112   0.0000       0.500559        13.6209 
 113   0.0000       0.505353        13.7513 
 114   0.0000       0.514991        14.0136 
 115   0.0000       0.522696        14.2233 
 116   0.0000       0.533754        14.5242 
 117   0.0000       0.554455        15.0875 
 118   0.0000       0.562569        15.3083 
 119   0.0000       0.572993        15.5919 
 120   0.0000       0.585955        15.9447 
 121   0.0000       0.590572        16.0703 
 122   0.0000       0.603257        16.4154 
 123   0.0000       0.617129        16.7929 
 124   0.0000       0.620138        16.8748 
 125   0.0000       0.624100        16.9826 
 126   0.0000       0.639723        17.4078 
 127   0.0000       0.647080        17.6080 
 128   0.0000       0.649386        17.6707 
 129   0.0000       0.656340        17.8599 
 130   0.0000       0.659418        17.9437 
 131   0.0000       0.665829        18.1181 
 132   0.0000       0.675928        18.3929 
 133   0.0000       0.692975        18.8568 
 134   0.0000       0.697240        18.9729 
 135   0.0000       0.703058        19.1312 
 136   0.0000       0.715643        19.4736 
 137   0.0000       0.720705        19.6114 
 138   0.0000       0.734128        19.9766 
 139   0.0000       0.737955        20.0808 
 140   0.0000       0.743181        20.2230 
 141   0.0000       0.750476        20.4215 
 142   0.0000       0.763560        20.7775 
 143   0.0000       0.766759        20.8646 
 144   0.0000       0.777115        21.1464 
 145   0.0000       0.780215        21.2307 
 146   0.0000       0.790666        21.5151 
 147   0.0000       0.793045        21.5799 
 148   0.0000       0.799892        21.7662 
 149   0.0000       0.815422        22.1888 
 150   0.0000       0.821112        22.3436 
 151   0.0000       0.828091        22.5335 
 152   0.0000       0.836624        22.7657 
 153   0.0000       0.842198        22.9174 
 154   0.0000       0.845603        23.0100 
 155   0.0000       0.854619        23.2554 
 156   0.0000       0.858121        23.3507 
 157   0.0000       0.867088        23.5947 
 158   0.0000       0.878209        23.8973 
 159   0.0000       0.889636        24.2082 
 160   0.0000       0.889989        24.2178 
 161   0.0000       0.902947        24.5704 
 162   0.0000       0.905568        24.6418 
 163   0.0000       0.922981        25.1156 
 164   0.0000       0.924647        25.1609 
 165   0.0000       0.937459        25.5095 
 166   0.0000       0.950561        25.8661 
 167   0.0000       0.953229        25.9387 
 168   0.0000       0.956857        26.0374 
 169   0.0000       0.964725        26.2515 
 170   0.0000       0.969212        26.3736 
 171   0.0000       0.978900        26.6372 
 172   0.0000       0.984036        26.7770 
 173   0.0000       0.986016        26.8309 
 174   0.0000       0.994544        27.0629 
 175   0.0000       0.995392        27.0860 
 176   0.0000       1.000912        27.2362 
 177   0.0000       1.012847        27.5610 
 178   0.0000       1.023456        27.8497 
 179   0.0000       1.033021        28.1099 
 180   0.0000       1.041361        28.3369 
 181   0.0000       1.043194        28.3868 
 182   0.0000       1.048437        28.5294 
 183   0.0000       1.054373        28.6909 
 184   0.0000       1.065700        28.9992 
 185   0.0000       1.076849        29.3026 
 186   0.0000       1.087726        29.5985 
 187   0.0000       1.092035        29.7158 
 188   0.0000       1.103683        30.0327 
 189   0.0000       1.111043        30.2330 
 190   0.0000       1.116854        30.3912 
 191   0.0000       1.120340        30.4860 
 192   0.0000       1.136458        30.9246 
 193   0.0000       1.144564        31.1452 
 194   0.0000       1.160886        31.5893 
 195   0.0000       1.164116        31.6772 
 196   0.0000       1.170704        31.8565 
 197   0.0000       1.179307        32.0906 
 198   0.0000       1.187418        32.3113 
 199   0.0000       1.200657        32.6715 
 200   0.0000       1.202607        32.7246 
 201   0.0000       1.221467        33.2378 
 202   0.0000       1.231422        33.5087 
 203   0.0000       1.242696        33.8155 
 204   0.0000       1.245416        33.8895 
 205   0.0000       1.260395        34.2971 
 206   0.0000       1.272114        34.6160 
 207   0.0000       1.278617        34.7929 
 208   0.0000       1.283061        34.9139 
 209   0.0000       1.291067        35.1317 
 210   0.0000       1.302356        35.4389 
 211   0.0000       1.318889        35.8888 
 212   0.0000       1.334302        36.3082 
 213   0.0000       1.339173        36.4407 
 214   0.0000       1.348179        36.6858 
 215   0.0000       1.359172        36.9850 
 216   0.0000       1.360820        37.0298 
 217   0.0000       1.370739        37.2997 
 218   0.0000       1.392575        37.8939 
 219   0.0000       1.397568        38.0298 
 220   0.0000       1.401657        38.1410 
 221   0.0000       1.410442        38.3801 
 222   0.0000       1.424674        38.7673 
 223   0.0000       1.436949        39.1014 
 224   0.0000       1.452249        39.5177 
 225   0.0000       1.457508        39.6608 
 226   0.0000       1.472989        40.0821 
 227   0.0000       1.482878        40.3512 
 228   0.0000       1.494545        40.6686 
 229   0.0000       1.500286        40.8249 
 230   0.0000       1.507586        41.0235 
 231   0.0000       1.523974        41.4694 
 232   0.0000       1.534652        41.7600 
 233   0.0000       1.540166        41.9100 
 234   0.0000       1.570832        42.7445 
 235   0.0000       1.580956        43.0200 
 236   0.0000       1.594788        43.3964 
 237   0.0000       1.595648        43.4198 
 238   0.0000       1.605867        43.6979 
 239   0.0000       1.614465        43.9318 
 240   0.0000       1.636145        44.5218 
 241   0.0000       1.641378        44.6642 
 242   0.0000       1.660531        45.1853 
 243   0.0000       1.665705        45.3261 
 244   0.0000       1.686071        45.8803 
 245   0.0000       1.694621        46.1130 
 246   0.0000       1.701476        46.2995 
 247   0.0000       1.707168        46.4544 
 248   0.0000       1.723542        46.8999 
 249   0.0000       1.729362        47.0583 
 250   0.0000       1.746521        47.5252 
 251   0.0000       1.761987        47.9461 
 252   0.0000       1.770700        48.1832 
 253   0.0000       1.775914        48.3251 
 254   0.0000       1.794775        48.8383 
 255   0.0000       1.800493        48.9939 
 256   0.0000       1.834561        49.9210 
 257   0.0000       1.846638        50.2496 
 258   0.0000       1.858445        50.5709 
 259   0.0000       1.881836        51.2074 
 260   0.0000       1.903807        51.8052 
 261   0.0000       1.911862        52.0244 
 262   0.0000       1.918498        52.2050 
 263   0.0000       1.945885        52.9502 
 264   0.0000       1.957306        53.2610 
 265   0.0000       1.978412        53.8353 
 266   0.0000       1.983402        53.9711 
 267   0.0000       2.026602        55.1466 
 268   0.0000       2.038977        55.4834 
 269   0.0000       2.054369        55.9022 
 270   0.0000       2.065821        56.2138 
 271   0.0000       2.099348        57.1262 
 272   0.0000       2.107061        57.3361 
 273   0.0000       2.136499        58.1371 
 274   0.0000       2.139231        58.2114 
 275   0.0000       2.149921        58.5023 
 276   0.0000       2.166815        58.9620 
 277   0.0000       2.183685        59.4211 
 278   0.0000       2.193132        59.6782 
 279   0.0000       2.200566        59.8804 
 280   0.0000       2.212546        60.2064 
 281   0.0000       2.220360        60.4191 
 282   0.0000       2.232123        60.7391 
 283   0.0000       2.242754        61.0284 
 284   0.0000       2.254453        61.3468 
 285   0.0000       2.268154        61.7196 
 286   0.0000       2.277413        61.9716 
 287   0.0000       2.281662        62.0872 
 288   0.0000       2.301368        62.6234 
 289   0.0000       2.313561        62.9552 
 290   0.0000       2.340623        63.6916 
 291   0.0000       2.343941        63.7819 
 292   0.0000       2.354048        64.0569 
 293   0.0000       2.370169        64.4956 
 294   0.0000       2.382867        64.8411 
 295   0.0000       2.397491        65.2391 
 296   0.0000       2.408270        65.5324 
 297   0.0000       2.414211        65.6940 
 298   0.0000       2.422878        65.9299 
 299   0.0000       2.437647        66.3318 
 300   0.0000       2.449780        66.6619 
 301   0.0000       2.457283        66.8661 
 302   0.0000       2.460495        66.9535 
 303   0.0000       2.472918        67.2915 
 304   0.0000       2.488362        67.7118 
 305   0.0000       2.502337        68.0920 
 306   0.0000       2.506575        68.2074 
 307   0.0000       2.514947        68.4352 
 308   0.0000       2.520719        68.5923 
 309   0.0000       2.529426        68.8292 
 310   0.0000       2.551586        69.4322 
 311   0.0000       2.560478        69.6742 
 312   0.0000       2.567689        69.8704 
 313   0.0000       2.574466        70.0548 
 314   0.0000       2.592613        70.5486 
 315   0.0000       2.600831        70.7722 
 316   0.0000       2.622373        71.3584 
 317   0.0000       2.638242        71.7902 
 318   0.0000       2.639264        71.8180 
 319   0.0000       2.654780        72.2402 
 320   0.0000       2.663798        72.4856 
 321   0.0000       2.670021        72.6550 
 322   0.0000       2.688019        73.1447 
 323   0.0000       2.696955        73.3879 
 324   0.0000       2.702039        73.5262 
 325   0.0000       2.720793        74.0365 
 326   0.0000       2.731264        74.3215 
 327   0.0000       2.737301        74.4858 
 328   0.0000       2.744763        74.6888 
 329   0.0000       2.764600        75.2286 
 330   0.0000       2.780502        75.6613 
 331   0.0000       2.795136        76.0595 
 332   0.0000       2.819103        76.7117 
 333   0.0000       2.830175        77.0130 
 334   0.0000       2.843408        77.3731 
 335   0.0000       2.849532        77.5397 
 336   0.0000       2.865636        77.9779 
 337   0.0000       2.881237        78.4024 
 338   0.0000       2.900900        78.9375 
 339   0.0000       2.915934        79.3466 
 340   0.0000       2.932051        79.7852 
 341   0.0000       2.951117        80.3040 
 342   0.0000       2.961330        80.5819 
 343   0.0000       2.983687        81.1902 
 344   0.0000       2.996294        81.5333 
 345   0.0000       3.002912        81.7134 
 346   0.0000       3.030310        82.4589 
 347   0.0000       3.090537        84.0978 
 348   0.0000       3.600009        97.9612 
 349   0.0000       3.631079        98.8067 
 350   0.0000       3.669302        99.8468 
 351   0.0000       3.691157       100.4415 
 352   0.0000       3.749985       102.0423 
 353   0.0000       3.754959       102.1776 
 354   0.0000       3.791013       103.1587 
 355   0.0000       3.824642       104.0738 
 356   0.0000       3.839023       104.4651 
 357   0.0000       3.852483       104.8314 
 358   0.0000       3.865144       105.1759 
 359   0.0000       3.875209       105.4498 
 360   0.0000       3.896471       106.0284 
 361   0.0000       3.914290       106.5133 
 362   0.0000       3.921296       106.7039 
 363   0.0000       3.928403       106.8973 
 364   0.0000       3.940751       107.2333 
 365   0.0000       3.955413       107.6323 
 366   0.0000       3.979355       108.2838 
 367   0.0000       4.006879       109.0327 
 368   0.0000       4.016939       109.3065 
 369   0.0000       4.035773       109.8190 
 370   0.0000       4.046352       110.1068 
 371   0.0000       4.052740       110.2807 
 372   0.0000       4.067594       110.6849 
 373   0.0000       4.070841       110.7732 
 374   0.0000       4.079942       111.0209 
 375   0.0000       4.099545       111.5543 
 376   0.0000       4.100918       111.5916 
 377   0.0000       4.112958       111.9193 
 378   0.0000       4.127044       112.3026 
 379   0.0000       4.136617       112.5631 
 380   0.0000       4.141770       112.7033 
 381   0.0000       4.155669       113.0815 
 382   0.0000       4.167171       113.3945 
 383   0.0000       4.179402       113.7273 
 384   0.0000       4.201883       114.3390 
 385   0.0000       4.215126       114.6994 
 386   0.0000       4.222806       114.9084 
 387   0.0000       4.237286       115.3024 
 388   0.0000       4.256627       115.8287 
 389   0.0000       4.278431       116.4220 
 390   0.0000       4.285287       116.6086 
 391   0.0000       4.289454       116.7220 
 392   0.0000       4.322148       117.6116 
 393   0.0000       4.332704       117.8989 
 394   0.0000       4.338088       118.0454 
 395   0.0000       4.341283       118.1323 
 396   0.0000       4.361701       118.6879 
 397   0.0000       4.375029       119.0506 
 398   0.0000       4.391155       119.4894 
 399   0.0000       4.401612       119.7739 
 400   0.0000       4.410928       120.0274 
 401   0.0000       4.426566       120.4530 
 402   0.0000       4.433993       120.6551 
 403   0.0000       4.448060       121.0379 
 404   0.0000       4.462569       121.4327 
 405   0.0000       4.467578       121.5690 
 406   0.0000       4.482056       121.9629 
 407   0.0000       4.491785       122.2277 
 408   0.0000       4.521081       123.0249 
 409   0.0000       4.537282       123.4657 
 410   0.0000       4.549849       123.8077 
 411   0.0000       4.582394       124.6933 
 412   0.0000       4.593670       125.0001 
 413   0.0000       4.602499       125.2404 
 414   0.0000       4.619751       125.7098 
 415   0.0000       4.637462       126.1918 
 416   0.0000       4.677548       127.2826 
 417   0.0000       4.685629       127.5024 
 418   0.0000       4.693632       127.7202 
 419   0.0000       4.718441       128.3953 
 420   0.0000       4.757888       129.4687 
 421   0.0000       4.773897       129.9043 
 422   0.0000       4.791579       130.3855 
 423   0.0000       4.811265       130.9212 
 424   0.0000       4.848085       131.9231 
 425   0.0000       4.854131       132.0876 
 426   0.0000       4.897165       133.2586 
 427   0.0000       4.913979       133.7162 
 428   0.0000       4.927840       134.0933 
 429   0.0000       4.939570       134.4125 
 430   0.0000       4.949727       134.6889 
 431   0.0000       4.977827       135.4536 
 432   0.0000       4.990363       135.7947 
 433   0.0000       4.999799       136.0514 
 434   0.0000       5.016085       136.4946 
 435   0.0000       5.033480       136.9679 
 436   0.0000       5.039351       137.1277 
 437   0.0000       5.048205       137.3686 
 438   0.0000       5.062885       137.7681 
 439   0.0000       5.072172       138.0208 
 440   0.0000       5.089163       138.4832 
 441   0.0000       5.092292       138.5683 
 442   0.0000       5.101202       138.8108 
 443   0.0000       5.118266       139.2751 
 444   0.0000       5.138186       139.8171 
 445   0.0000       5.151957       140.1919 
 446   0.0000       5.163783       140.5137 
 447   0.0000       5.182078       141.0115 
 448   0.0000       5.194115       141.3390 
 449   0.0000       5.232856       142.3932 
 450   0.0000       5.284510       143.7988 
 451   0.0000       5.316905       144.6803 
 452   0.0000       5.320400       144.7754 
 453   0.0000       5.370283       146.1328 
 454   0.0000       5.432227       147.8184 
 455   0.0000       5.479084       149.0934 
 456   0.0000       5.522618       150.2781 
 457   0.0000       5.540119       150.7543 
 458   0.0000       5.575772       151.7245 
 459   0.0000       5.643543       153.5686 
 460   0.0000       5.653973       153.8524 
 461   0.0000       5.679916       154.5584 
 462   0.0000       5.936773       161.5478 
 463   0.0000       5.972104       162.5092 
 464   0.0000       6.033443       164.1783 
 465   0.0000       6.083582       165.5427 
 466   0.0000       6.092880       165.7957 
 467   0.0000       6.140722       167.0975 
 468   0.0000       6.164656       167.7488 
 469   0.0000       6.176674       168.0758 
 470   0.0000       6.209112       168.9585 
 471   0.0000       6.224010       169.3639 
 472   0.0000       6.224945       169.3894 
 473   0.0000       6.296951       171.3487 
 474   0.0000       6.448265       175.4662 
 475   0.0000       6.459206       175.7639 
 476   0.0000       6.484610       176.4552 
 477   0.0000       6.490401       176.6128 
 478   0.0000       6.528907       177.6606 
 479   0.0000       6.552642       178.3064 
 480   0.0000       6.574719       178.9072 
 481   0.0000       6.599024       179.5686 
 482   0.0000       6.612052       179.9231 
 483   0.0000       6.657996       181.1733 
 484   0.0000       6.674325       181.6176 
 485   0.0000       6.691028       182.0721 
 486   0.0000       6.759715       183.9412 
 487   0.0000       6.770370       184.2311 
 488   0.0000       6.792082       184.8220 
[...]
      1       0.028445   0.001969  -0.004018   0.000955  -0.000316  -0.001087
      2      -0.008665  -0.000476   0.001720  -0.000475   0.000032  -0.001233
      3       0.865173   0.052250  -0.146013   0.067767  -0.011227  -0.045295
      4      -0.433928  -0.024742   0.065626  -0.030938   0.005475   0.018227
      5       0.132179   0.004872  -0.011616   0.001537   0.000081  -0.001314
      6      -0.036581  -0.002244   0.009850  -0.002260  -0.001676  -0.010670
      7      -0.009224   0.001631   0.001735   0.000286  -0.001960  -0.010395
      8       0.040135   0.001875  -0.007352  -0.015110   0.001930   0.017420
      9       0.000564   0.000251   0.001220  -0.011906  -0.000441   0.002082
     10       0.001208   0.000871   0.001372  -0.008630  -0.000019   0.001548
     11      -0.006653  -0.002459  -0.006735   0.057093   0.005403  -0.006453
     12      -0.017755  -0.006229  -0.016616   0.120213   0.005548  -0.012833
     13      -0.017335  -0.009599  -0.014167   0.104927   0.008893  -0.014597
     14       0.090223   0.040683   0.111641  -0.951555  -0.084834   0.122217
     15      -0.003051  -0.002143  -0.011470   0.081896  -0.006303  -0.018323
     16      -0.001906  -0.000391  -0.005364   0.039905  -0.000310  -0.009110
     17      -0.003466  -0.002165  -0.008051   0.068581   0.002178  -0.013847
     18       0.000263  -0.001656  -0.000020   0.001788   0.002164   0.023587
     19       0.001678  -0.004848  -0.000065   0.003423   0.003590   0.034995
     20      -0.002540   0.002016   0.000037  -0.007990  -0.006975  -0.037315
     21      -0.012720   0.033550  -0.001673  -0.043276  -0.043561  -0.324153
     22      -0.015748   0.044450   0.000471  -0.061659  -0.066027  -0.505035
     23       0.041462  -0.070573  -0.001567   0.096481   0.094227   0.752049
     24       0.002930   0.021843   0.001015   0.015325   0.008259  -0.052977
     25       0.004568   0.013785  -0.000291   0.010994   0.007826  -0.041189
     26      -0.006410   0.039307   0.001404   0.026294   0.015190  -0.161188
     27       0.001696   0.000780   0.000935  -0.000306   0.001803  -0.000564
     28       0.000416   0.002494   0.020434   0.003076   0.000035  -0.001439
     29       0.008889   0.003079   0.055494   0.007991  -0.007084  -0.000216
     30       0.003478   0.003232  -0.010238  -0.000925   0.002305  -0.001293
     31      -0.060897  -0.013840  -0.357008  -0.048440   0.038784   0.000231
     32      -0.129493  -0.045481  -0.897951  -0.129488   0.118917   0.002623
     33       0.029235  -0.015806   0.007582   0.001360  -0.029166   0.015034
     34       0.027204  -0.020463   0.025035   0.001945  -0.040890   0.020480
     35       0.008342  -0.005449   0.035838   0.003144  -0.002595   0.001039
     36       0.001644   0.004249   0.003392  -0.006469   0.039418  -0.004084
     37      -0.001232   0.002042  -0.006050   0.000754  -0.033505   0.003988
     38      -0.001212   0.000599  -0.000352  -0.001427   0.009946  -0.001110
     39      -0.030346  -0.035141  -0.100851   0.088631  -0.847896   0.092019
     40       0.008574   0.012256   0.026977  -0.027181   0.228204  -0.025851
     41      -0.011261  -0.010462  -0.029712   0.023424  -0.198798   0.021699
     42       0.009352  -0.027097   0.051558   0.006613   0.232550  -0.027413
     43       0.008122  -0.040952   0.071900   0.015592   0.300421  -0.037799
     44       0.005489   0.002461   0.001809  -0.001469   0.031285  -0.004027
     45       0.003910  -0.051434   0.001972  -0.002187  -0.000591  -0.004015
     46      -0.001995   0.032918  -0.001508   0.001533  -0.000377   0.003381
     47      -0.000371   0.000907   0.000644   0.000286   0.000035  -0.000084
     48      -0.053246   0.856715  -0.035974   0.039212   0.003446   0.084644
     49       0.034654  -0.481364   0.021035  -0.020809   0.000770  -0.040602
     50       0.001460  -0.023351  -0.001392  -0.003114   0.001057  -0.002465
     51       0.003329  -0.075064   0.004483  -0.004112   0.003489  -0.016075
     52       0.003241  -0.043376   0.002716  -0.002256   0.004374  -0.011254
     53      -0.001191   0.010099   0.000520   0.000725  -0.000160   0.002428
                 48         49         50         51         52         53    
      0       0.000517   0.001055   0.000728  -0.028810  -0.004144  -0.024671
      1      -0.000318  -0.000971  -0.000390  -0.010804  -0.001443  -0.009541
      2       0.000413   0.000709  -0.000570   0.034755   0.004933   0.030806
      3      -0.011741  -0.028510  -0.010161   0.019216   0.004100   0.007432
      4       0.003975   0.010152   0.005293  -0.021412  -0.003735  -0.014907
      5      -0.001294   0.000148  -0.000231   0.020725   0.003055   0.018314
      6       0.002353   0.008199  -0.005090   0.434178   0.061759   0.382039
      7       0.000824   0.003410  -0.004257   0.192953   0.027323   0.169100
      8      -0.003372  -0.009619   0.008403  -0.573749  -0.081603  -0.503304
      9      -0.000387   0.000038  -0.000332   0.031019   0.001512  -0.035274
     10       0.000194  -0.000114   0.000195   0.015567   0.000805  -0.017602
     11       0.003141   0.000208  -0.003753   0.022010   0.001012  -0.026776
     12       0.003909  -0.000550  -0.003425   0.024161   0.000951  -0.031428
     13       0.003842   0.000624  -0.003124   0.014240   0.000138  -0.020895
     14      -0.049515  -0.004049   0.058027  -0.045021  -0.001244   0.076249
     15      -0.005919   0.000606   0.010341  -0.516209  -0.024936   0.590173
     16      -0.001576   0.000231   0.007235  -0.261914  -0.012650   0.299446
     17       0.000266   0.000449   0.002956  -0.302023  -0.014527   0.345501
     18      -0.000798  -0.000244  -0.020935  -0.000299   0.000763   0.000686
     19      -0.000842  -0.000430  -0.017717  -0.000064   0.000620   0.000953
     20      -0.003317   0.002275  -0.056878  -0.001496   0.000034  -0.000547
     21      -0.006069   0.009706  -0.069140  -0.003855  -0.003588  -0.007524
     22      -0.007674   0.015776  -0.098688  -0.005874  -0.006461  -0.012076
     23       0.006629  -0.019635   0.093009   0.009087   0.009613   0.017735
     24       0.021390  -0.008031   0.403208   0.008591  -0.004777  -0.004261
     25       0.018426  -0.007438   0.380057   0.007446  -0.004446  -0.003426
     26       0.045466  -0.016273   0.810103   0.015041  -0.010305  -0.008487
     27      -0.005279  -0.034559  -0.000537   0.000350   0.000901   0.000448
     28      -0.006907  -0.049250  -0.001120   0.000176   0.001278   0.000140
     29       0.002015  -0.001937  -0.000473  -0.000234   0.000035  -0.000289
     30      -0.004137  -0.020364  -0.000240   0.000538   0.000680   0.000070
     31      -0.015094  -0.018232   0.002307   0.001621   0.000908   0.001578
     32      -0.036709   0.032227   0.008256   0.003660  -0.000568   0.004312
     33       0.089053   0.573590   0.009951  -0.003448  -0.015272  -0.003411
     34       0.123293   0.798230   0.014881  -0.005158  -0.021506  -0.004926
     35       0.003325  -0.001232  -0.000289  -0.000367  -0.000394   0.000007
     36       0.052799  -0.005756  -0.004296  -0.000855   0.000596   0.000791
     37       0.040084  -0.007489  -0.001082  -0.000158   0.001028  -0.000077
     38       0.009495  -0.000390  -0.000945  -0.000212   0.000057   0.000098
     39      -0.342364   0.008033   0.050277   0.010375   0.001190  -0.011896
     40       0.129802  -0.007597  -0.015595  -0.002540   0.000011   0.002614
     41      -0.083277   0.001855   0.011726   0.002210   0.000145  -0.002316
     42      -0.487886   0.083908   0.019127   0.003494  -0.010694  -0.000821
     43      -0.761132   0.129345   0.032329   0.005748  -0.016843  -0.002007
     44      -0.055786   0.009125   0.003159   0.000513  -0.000422   0.000048
     45       0.003489  -0.003262   0.000723   0.004866  -0.048339   0.002289
     46      -0.001310  -0.000171  -0.001325   0.003907  -0.038055   0.001813
     47      -0.000701  -0.000073   0.000003  -0.000795   0.007685  -0.000395
     48      -0.053152   0.035168  -0.025461  -0.003269   0.042007  -0.001854
     49       0.023948  -0.015564   0.010267   0.005431  -0.058949   0.002738
     50       0.000262  -0.001245   0.000300  -0.000286   0.002505   0.000106
     51      -0.004450   0.016421   0.011854  -0.073303   0.721727  -0.033930
     52      -0.009094   0.018387   0.009589  -0.067406   0.663925  -0.031313
     53      -0.001330  -0.004328  -0.001590   0.012684  -0.124591   0.005857


-----------
IR SPECTRUM  
-----------

 Mode    freq (cm**-1)   T**2         TX         TY         TZ
-------------------------------------------------------------------
   6:        50.27    0.385132  (  0.198807   0.137793  -0.571508)
   7:        59.73    1.250042  ( -1.041167  -0.239499  -0.329628)
   8:        70.37    1.582649  ( -0.008891  -0.017956   1.257874)
   9:        83.12    0.249561  ( -0.123338   0.422297  -0.236674)
  10:        92.75    1.110593  (  0.055587  -0.063267  -1.050476)
  11:       146.19    1.372332  ( -0.609006   0.966827   0.258243)
  12:       175.60   10.547437  (  1.669898   2.203939   1.703388)
  13:       185.18    1.502229  ( -0.895405   0.834755  -0.060529)
  14:       228.44    1.344379  (  0.641963  -0.660285   0.704475)
  15:       238.41   34.842637  (  4.656801  -2.868589   2.219920)
  16:       257.97   38.297752  (  4.607444  -3.341077  -2.430313)
  17:       262.19   41.308051  ( -0.663470  -1.989846   6.075226)
  18:       280.33   40.348746  ( -0.336299  -2.230862  -5.937921)
  19:       300.59   43.539704  ( -1.566082  -6.357753   0.816132)
  20:       325.60   24.868508  ( -4.845546   1.178389   0.024299)
  21:       387.12   45.351635  ( -5.164849   3.549772  -2.464769)
  22:       406.38    6.744228  ( -0.099488   2.594596   0.049021)
  23:       463.25   78.354997  (  5.970447  -6.050859  -2.468981)
  24:       464.86   48.958065  (  2.491733   0.330695   6.529929)
  25:       504.51   57.721604  ( -0.694158   0.938158  -7.507304)
  26:       524.08   35.073840  (  5.874063  -0.616398  -0.435055)
  27:       567.93  192.999946  (-13.577852  -0.681777  -2.859554)
  28:       597.91   33.627017  ( -3.124842  -4.140600  -2.591874)
  29:       668.91  141.152616  (  0.111455  -0.731795 -11.857684)
  30:       695.59  235.216929  ( -2.591343   6.623317  13.587992)
  31:       742.22  171.986043  ( -7.709493  10.403059   2.079935)
  32:       785.31  157.572104  (  6.571201  -9.556675   4.802226)
  33:       897.77   43.097143  ( -4.167221   4.446472  -2.441372)
  34:       934.75   50.639428  (  3.266157  -3.370690  -5.348840)
  35:      1105.71   45.143442  (  2.863614   4.677818   3.880873)
  36:      1635.90  122.381050  (  6.467165   8.718599   2.131395)
  37:      1650.20   88.505688  ( -2.449194  -6.397178   6.448507)
  38:      1653.73   33.969169  ( -3.851212   3.068888   3.117573)
  39:      1681.45   16.228490  (  3.879066  -1.085518  -0.054625)
  40:      1689.14  145.569471  (  2.553672  10.539284  -5.288830)
  41:      1712.17   45.446495  (  2.727912   0.748608  -6.119197)
  42:      2845.24  1109.211266  ( 30.918486 -12.259127  -1.724042)
  43:      3195.45  885.288121  ( 28.287387  -8.914877  -2.374196)
  44:      3251.59  432.864829  ( -7.147132   0.085813 -19.539088)
  45:      3325.91  602.319542  (  2.681489  -4.025618 -24.060830)
  46:      3495.86  279.712092  (-15.017909   6.961094   2.391162)
  47:      3510.96  320.359332  ( -3.111872 -12.729832  12.191266)
  48:      3562.25  306.760077  (-14.633870  -7.682572  -5.795516)
  49:      3626.24  180.388927  (  7.522642  11.076714  -1.051272)
  50:      3651.43  152.218628  (  4.151527   4.163976  10.846417)
  51:      3766.98   48.067233  (  0.825539  -1.159608  -6.785354)
  52:      3768.24   48.423273  (  6.679164   1.356986  -1.403792)
  53:      3770.20   43.461201  (  6.049749   1.622495   2.056515)

The first frequency considered to be a vibration is 6
The total number of vibrations considered is 48


--------------------------
THERMOCHEMISTRY AT 298.15K
--------------------------

Temperature         ... 298.15 K
Pressure            ... 1.00 atm
Total Mass          ... 108.09 AMU

Throughout the following assumptions are being made:
  (1) The electronic state is orbitally nondegenerate
  (2) There are no thermally accessible electronically excited states
  (3) Hindered rotations indicated by low frequency modes are not
      treated as such but are treated as vibrations and this may
      cause some error
  (4) All equations used are the standard statistical mechanics
      equations for an ideal gas
  (5) All vibrations are strictly harmonic

freq.      50.27  E(vib)   ...       0.52 
freq.      59.73  E(vib)   ...       0.51 
freq.      70.37  E(vib)   ...       0.50 
freq.      83.12  E(vib)   ...       0.48 
freq.      92.75  E(vib)   ...       0.47 
freq.     146.19  E(vib)   ...       0.41 
freq.     175.60  E(vib)   ...       0.38 
freq.     185.18  E(vib)   ...       0.37 
freq.     228.44  E(vib)   ...       0.32 
freq.     238.41  E(vib)   ...       0.32 
freq.     257.97  E(vib)   ...       0.30 
freq.     262.19  E(vib)   ...       0.29 
freq.     280.33  E(vib)   ...       0.28 
freq.     300.59  E(vib)   ...       0.26 
freq.     325.60  E(vib)   ...       0.24 
freq.     387.12  E(vib)   ...       0.20 
freq.     406.38  E(vib)   ...       0.19 
freq.     463.25  E(vib)   ...       0.16 
freq.     464.86  E(vib)   ...       0.16 
freq.     504.51  E(vib)   ...       0.14 
freq.     524.08  E(vib)   ...       0.13 
freq.     567.93  E(vib)   ...       0.11 
freq.     597.91  E(vib)   ...       0.10 
freq.     668.91  E(vib)   ...       0.08 
freq.     695.59  E(vib)   ...       0.07 
freq.     742.22  E(vib)   ...       0.06 
freq.     785.31  E(vib)   ...       0.05 
freq.     897.77  E(vib)   ...       0.03 
freq.     934.75  E(vib)   ...       0.03 
freq.    1105.71  E(vib)   ...       0.02 
freq.    1635.90  E(vib)   ...       0.00 
freq.    1650.20  E(vib)   ...       0.00 
freq.    1653.73  E(vib)   ...       0.00 
freq.    1681.45  E(vib)   ...       0.00 
freq.    1689.14  E(vib)   ...       0.00 
freq.    1712.17  E(vib)   ...       0.00 
freq.    2845.24  E(vib)   ...       0.00 
freq.    3195.45  E(vib)   ...       0.00 
freq.    3251.59  E(vib)   ...       0.00 
freq.    3325.91  E(vib)   ...       0.00 
freq.    3495.86  E(vib)   ...       0.00 
freq.    3510.96  E(vib)   ...       0.00 
freq.    3562.25  E(vib)   ...       0.00 
freq.    3626.24  E(vib)   ...       0.00 
freq.    3651.43  E(vib)   ...       0.00 
freq.    3766.98  E(vib)   ...       0.00 
freq.    3768.24  E(vib)   ...       0.00 
freq.    3770.20  E(vib)   ...       0.00 

------------
INNER ENERGY
------------

The inner energy is: U= E(el) + E(ZPE) + E(vib) + E(rot) + E(trans)
    E(el)   - is the total energy from the electronic structure calculation
              = E(kin-el) + E(nuc-el) + E(el-el) + E(nuc-nuc)
    E(ZPE)  - the the zero temperature vibrational energy from the frequency calculation
    E(vib)  - the the finite temperature correction to E(ZPE) due to population
              of excited vibrational states
    E(rot)  - is the rotational thermal energy
    E(trans)- is the translational thermal energy

Summary of contributions to the inner energy U:
Electronic energy                ...   -458.88083911 Eh
Zero point energy                ...      0.14647708 Eh      91.92 kcal/mol
Thermal vibrational correction   ...      0.01146920 Eh       7.20 kcal/mol
Thermal rotational correction    ...      0.00141627 Eh       0.89 kcal/mol
Thermal translational correction ...      0.00141627 Eh       0.89 kcal/mol
-----------------------------------------------------------------------
Total thermal energy                   -458.72006029 Eh


Summary of corrections to the electronic energy:
(perhaps to be used in another calculation)
Total thermal correction                  0.01430175 Eh       8.97 kcal/mol
Non-thermal (ZPE) correction              0.14647708 Eh      91.92 kcal/mol
-----------------------------------------------------------------------
Total correction                          0.16077882 Eh     100.89 kcal/mol


--------
ENTHALPY
--------

The enthalpy is H = U + kB*T
                kB is Boltzmann's constant
Total free energy                 ...   -458.72006029 Eh 
Thermal Enthalpy correction       ...      0.00094421 Eh       0.59 kcal/mol
-----------------------------------------------------------------------
Total Enthalpy                    ...   -458.71911608 Eh


Note: Only C1 symmetry has been detected, increase convergence thresholds 
      if your molecule has a higher symmetry. Symmetry factor of 1.0 is   
      used for the rotational entropy correction. 
 

Note: Rotational entropy computed according to Herzberg 
Infrared and Raman Spectra, Chapter V,1, Van Nostrand Reinhold, 1945 
Point Group:  C1, Symmetry Number:   1  
Rotational constants in cm-1:     0.056955     0.049387     0.046242 

Vibrational entropy computed according to the QRRHO of S. Grimme
Chem.Eur.J. 2012 18 9955


-------
ENTROPY
-------

The entropy contributions are T*S = T*(S(el)+S(vib)+S(rot)+S(trans))
     S(el)   - electronic entropy
     S(vib)  - vibrational entropy
     S(rot)  - rotational entropy
     S(trans)- translational entropy
The entropies will be listed as mutliplied by the temperature to get
units of energy

Electronic entropy                ...      0.00000000 Eh      0.00 kcal/mol
Vibrational entropy               ...      0.02032640 Eh     12.75 kcal/mol
Rotational entropy                ...      0.01373480 Eh      8.62 kcal/mol
Translational entropy             ...      0.01898142 Eh     11.91 kcal/mol
-----------------------------------------------------------------------
Final entropy term                ...      0.05304262 Eh     33.28 kcal/mol

In case the symmetry of your molecule has not been determined correctly
or in case you have a reason to use a different symmetry number we print 
out the resulting rotational entropy values for sn=1,12 :
 --------------------------------------------------------
|  sn= 1 | S(rot)=       0.01373480 Eh      8.62 kcal/mol|
|  sn= 2 | S(rot)=       0.01308035 Eh      8.21 kcal/mol|
|  sn= 3 | S(rot)=       0.01269751 Eh      7.97 kcal/mol|
|  sn= 4 | S(rot)=       0.01242589 Eh      7.80 kcal/mol|
|  sn= 5 | S(rot)=       0.01221520 Eh      7.67 kcal/mol|
|  sn= 6 | S(rot)=       0.01204306 Eh      7.56 kcal/mol|
|  sn= 7 | S(rot)=       0.01189751 Eh      7.47 kcal/mol|
|  sn= 8 | S(rot)=       0.01177143 Eh      7.39 kcal/mol|
|  sn= 9 | S(rot)=       0.01166023 Eh      7.32 kcal/mol|
|  sn=10 | S(rot)=       0.01156075 Eh      7.25 kcal/mol|
|  sn=11 | S(rot)=       0.01147076 Eh      7.20 kcal/mol|
|  sn=12 | S(rot)=       0.01138860 Eh      7.15 kcal/mol|
 --------------------------------------------------------


-------------------
GIBBS FREE ENERGY
-------------------

The Gibbs free energy is G = H - T*S

Total enthalpy                    ...   -458.71911608 Eh 
Total entropy correction          ...     -0.05304262 Eh    -33.28 kcal/mol
-----------------------------------------------------------------------
Final Gibbs free energy         ...   -458.77215870 Eh

For completeness - the Gibbs free energy minus the electronic energy
G-E(el)                           ...      0.10868041 Eh     68.20 kcal/mol


Total Time for Numerical Frequencies  :       749.151 sec

Timings for individual modules:

Sum of individual times         ...      290.918 sec (=   4.849 min)
GTO integral calculation        ...       20.067 sec (=   0.334 min)   6.9 %
SCF iterations                  ...      162.308 sec (=   2.705 min)  55.8 %
SCF Gradient evaluation         ...      102.785 sec (=   1.713 min)  35.3 %
Geometry relaxation             ...        5.759 sec (=   0.096 min)   2.0 %
                             ****ORCA TERMINATED NORMALLY****
TOTAL RUN TIME: 0 days 0 hours 17 minutes 18 seconds 488 msec
