
                                 *****************
                                 * O   R   C   A *
                                 *****************

           --- An Ab Initio, DFT and Semiempirical electronic structure package ---

                  #######################################################
                  #                        -***-                        #
                  #          Department of theory and spectroscopy      #
                  #               Directorship: Frank Neese             #
                  #        Max Planck Institute fuer Kohlenforschung    #
                  #                Kaiser Wilhelm Platz 1               #
                  #                 D-45470 Muelheim/Ruhr               #
                  #                      Germany                        #
                  #                                                     #
                  #                  All rights reserved                #
                  #                        -***-                        #
                  #######################################################


                         Program Version 4.2.0 -  RELEASE  -


 With contributions from (in alphabetic order):
   Daniel Aravena         : Magnetic Suceptibility
   Michael Atanasov       : Ab Initio Ligand Field Theory (pilot matlab implementation)
   Alexander A. Auer      : GIAO ZORA, VPT2
   Ute Becker             : Parallelization
   Giovanni Bistoni       : ED, misc. LED, open-shell LED, HFLED
   Martin Brehm           : Molecular dynamics
   Dmytro Bykov           : SCF Hessian
   Vijay G. Chilkuri      : MRCI spin determinant printing, contributions to CSF-ICE
   Dipayan Datta          : RHF DLPNO-CCSD density
   Achintya Kumar Dutta   : EOM-CC, STEOM-CC
   Dmitry Ganyushin       : Spin-Orbit,Spin-Spin,Magnetic field MRCI
   Miquel Garcia          : C-PCM Hessian, Gaussian charge scheme
   Yang Guo               : DLPNO-NEVPT2, CIM, IAO-localization
   Andreas Hansen         : Spin unrestricted coupled pair/coupled cluster methods
   Benjamin Helmich-Paris : CASSCF linear response (MC-RPA)
   Lee Huntington         : MR-EOM, pCC
   Robert Izsak           : Overlap fitted RIJCOSX, COSX-SCS-MP3, EOM
   Christian Kollmar      : KDIIS, OOCD, Brueckner-CCSD(T), CCSD density
   Simone Kossmann        : Meta GGA functionals, TD-DFT gradient, OOMP2, MP2 Hessian
   Martin Krupicka        : AUTO-CI
   Lucas Lang             : DCDCAS
   Dagmar Lenk            : GEPOL surface, SMD
   Dimitrios Liakos       : Extrapolation schemes; Compound Job, initial MDCI parallelization
   Dimitrios Manganas     : Further ROCIS development; embedding schemes
   Dimitrios Pantazis     : SARC Basis sets
   Taras Petrenko         : DFT Hessian,TD-DFT gradient, ASA, ECA, R-Raman, ABS, FL, XAS/XES, NRVS
   Peter Pinski           : DLPNO-MP2, DLPNO-MP2 Gradient
   Christoph Reimann      : Effective Core Potentials
   Marius Retegan         : Local ZFS, SOC
   Christoph Riplinger    : Optimizer, TS searches, QM/MM, DLPNO-CCSD(T), (RO)-DLPNO pert. Triples
   Tobias Risthaus        : Range-separated hybrids, TD-DFT gradient, RPA, STAB
   Michael Roemelt        : Original ROCIS implementation
   Masaaki Saitow         : Open-shell DLPNO-CCSD energy and density
   Barbara Sandhoefer     : DKH picture change effects
   Avijit Sen             : IP-ROCIS
   Kantharuban Sivalingam : CASSCF convergence, NEVPT2, FIC-MRCI
   Bernardo de Souza      : ESD, SOC TD-DFT
   Georgi Stoychev        : AutoAux, RI-MP2 NMR
   Willem Van den Heuvel  : Paramagnetic NMR
   Boris Wezisla          : Elementary symmetry handling
   Frank Wennmohs         : Technical directorship


 We gratefully acknowledge several colleagues who have allowed us to
 interface, adapt or use parts of their codes:
   Stefan Grimme, W. Hujo, H. Kruse,             : VdW corrections, initial TS optimization,
                  C. Bannwarth                     DFT functionals, gCP, sTDA/sTD-DF
   Ed Valeev, F. Pavosevic, A. Kumar             : LibInt (2-el integral package), F12 methods
   Garnet Chan, S. Sharma, J. Yang, R. Olivares  : DMRG
   Ulf Ekstrom                                   : XCFun DFT Library
   Mihaly Kallay                                 : mrcc  (arbitrary order and MRCC methods)
   Andreas Klamt, Michael Diedenhofen            : otool_cosmo (COSMO solvation model)
   Jiri Pittner, Ondrej Demel                    : Mk-CCSD
   Frank Weinhold                                : gennbo (NPA and NBO analysis)
   Christopher J. Cramer and Donald G. Truhlar   : smd solvation model
   Lars Goerigk                                  : TD-DFT with DH, B97 family of functionals
   V. Asgeirsson, H. Jonsson                     : NEB implementation
   FAccTs GmbH                                   : IRC, NEB, NEB-TS, Multilevel, MM, QM/MM, CI optimization
   S Lehtola, MJT Oliveira, MAL Marques          : LibXC Library


 Your calculation uses the libint2 library for the computation of 2-el integrals
 For citations please refer to: http://libint.valeyev.net

 Your ORCA version has been built with support for libXC version: 4.2.3
 For citations please refer to: https://tddft.org/programs/libxc/

 This ORCA versions uses:
   CBLAS   interface :  Fast vector & matrix operations
   LAPACKE interface :  Fast linear algebra routines
   SCALAPACK package :  Parallel linear algebra routines


Your calculation utilizes the atom-pairwise dispersion correction
with the Becke-Johnson damping scheme (D3BJ)
Cite in your paper:
S.Grimme, S.Ehrlich, L.Goerigk, J Comput Chem, (2011), 32, 1456–1465 
S.Grimme, J.Antony, S.Ehrlich and H.Krieg, J.Chem.Phys., 132, (2010), 154104 
   

----- Orbital basis set information -----
Your calculation utilizes the basis: aug-cc-pV(T+d)Z 
             Al - Ar: T.H. Dunning, Jr., K. A. Peterson and A. K. Wilson, J. Chem. Phys.
                      114, 9244 (2001)

----- AuxC basis set information -----
Your calculation utilizes the auxiliary basis: def2-TZVP/C
  H-La, Hf-Rn : A. Hellweg, C. Hattig, S. Hofener and W. Klopper, Theor. Chem. Acc. 117, 587 (2007).
        Ce-Lu : J. Chmela and M. E. Harding, Mol. Phys. (2018).

----- AuxJK basis set information -----
Your calculation utilizes the auxiliary basis: def2/JK
   H-Ba, Hf-Rn: F. Weigend, J. Comput. Chem. 29, 167 (2008).

================================================================================
                                        WARNINGS
                       Please study these warnings very carefully!
================================================================================


WARNING: The frozen-core approximation for MP2-gradient calculations is turned on by default.

WARNING: Geometry Optimization
  ===> : Switching off AutoStart
         For restart on a previous wavefunction, please use MOREAD

WARNING: There are different parametrizations of Gershom Martin's DSD-DFs
         for use with and without D3(BJ)!
         You are using the D3(BJ) parametrized version,
         consistent with the 2013 article (S. Kozuch and J. M. L. Martin, JCC 2013, 34, 2327)

WARNING: The frozen-core approximation is turned on by default for 
         the MP2 part of double-hybrid DFT.

INFO   : the flag for use of LIBINT has been found!

================================================================================
                                       INPUT FILE
================================================================================
NAME = 01_H2O.in
|  1> #
|  2> # 01_H2O dsd-blyp/aug-cc-pvt(+d)z
|  3> #
|  4> ! rijk ri-dsd-blyp/2013 d3bj aug-cc-pvt(+d)z def2/jk def2-tzvp/c grid4 nofinalgrid opt xyzfile numfreq
|  5> 
|  6> *xyz 0 1
|  7> O	0	0	0.12434822
|  8> H	0	-1.43139324	-0.98674827
|  9> H	0	1.43139324	-0.98674827
| 10> *
| 11> 
| 12> %maxcore 5000
| 13> 
| 14> %pal
| 15> nprocs 24
| 16> end
| 17> 
| 18> 
| 19>                          ****END OF INPUT****
================================================================================

                       *****************************
                       * Geometry Optimization Run *
                       *****************************

Geometry optimization settings:
Update method            Update   .... BFGS
Choice of coordinates    CoordSys .... Z-matrix Internals
Initial Hessian          InHess   .... Almoef's Model

Convergence Tolerances:
Energy Change            TolE     ....  5.0000e-06 Eh
Max. Gradient            TolMAXG  ....  3.0000e-04 Eh/bohr
RMS Gradient             TolRMSG  ....  1.0000e-04 Eh/bohr
Max. Displacement        TolMAXD  ....  4.0000e-03 bohr
RMS Displacement         TolRMSD  ....  2.0000e-03 bohr
Strict Convergence                ....  False
------------------------------------------------------------------------------
                        ORCA OPTIMIZATION COORDINATE SETUP
------------------------------------------------------------------------------

The optimization will be done in new redundant internal coordinates
Making redundant internal coordinates   ...  (new redundants) done
Evaluating the initial hessian          ...  (Almloef) done
Evaluating the coordinates              ...  done
Calculating the B-matrix                .... done
Calculating the G-matrix                .... done
Diagonalizing the G-matrix              .... done
The first mode is                       ....    0
The number of degrees of freedom        ....    3

    -----------------------------------------------------------------
                    Redundant Internal Coordinates


    -----------------------------------------------------------------
         Definition                    Initial Value    Approx d2E/dq
    -----------------------------------------------------------------
      1. B(H   1,O   0)                  1.8120         0.022731   
      2. B(H   2,O   0)                  1.8120         0.022731   
      3. A(H   1,O   0,H   2)          104.3603         0.145455   
    -----------------------------------------------------------------

Number of atoms                         .... 3
Number of degrees of freedom            .... 3

         *************************************************************
         *                GEOMETRY OPTIMIZATION CYCLE   1            *
         *************************************************************
---------------------------------
CARTESIAN COORDINATES (ANGSTROEM)
---------------------------------
  O      0.000000    0.000000    0.124348
  H      0.000000   -1.431393   -0.986748
  H      0.000000    1.431393   -0.986748

----------------------------
CARTESIAN COORDINATES (A.U.)
----------------------------
  NO LB      ZA    FRAG     MASS         X           Y           Z
   0 O     8.0000    0    15.999    0.000000    0.000000    0.234984
   1 H     1.0000    0     1.008    0.000000   -2.704941   -1.864684
   2 H     1.0000    0     1.008    0.000000    2.704941   -1.864684

--------------------------------
INTERNAL COORDINATES (ANGSTROEM)
--------------------------------
 O      0   0   0     0.000000000000     0.00000000     0.00000000
 H      1   0   0     1.812021527910     0.00000000     0.00000000
 H      1   2   0     1.812021527910   104.36032046     0.00000000

---------------------------
INTERNAL COORDINATES (A.U.)
---------------------------
 O      0   0   0     0.000000000000     0.00000000     0.00000000
 H      1   0   0     3.424224436519     0.00000000     0.00000000
 H      1   2   0     3.424224436519   104.36032046     0.00000000

---------------------
BASIS SET INFORMATION
---------------------
There are 2 groups of distinct atoms

 Group   1 Type O   : 19s6p3d2f contracted to 5s4p3d2f pattern {88111/3111/111/11}
 Group   2 Type H   : 6s3p2d contracted to 4s3p2d pattern {3111/111/11}

Atom   0O    basis set group =>   1
Atom   1H    basis set group =>   2
Atom   2H    basis set group =>   2
---------------------------------
AUXILIARY/C BASIS SET INFORMATION
---------------------------------
There are 2 groups of distinct atoms

 Group   1 Type O   : 8s6p5d3f1g contracted to 8s6p4d3f1g pattern {11111111/111111/2111/111/1}
 Group   2 Type H   : 4s3p2d contracted to 4s2p1d pattern {1111/21/2}

Atom   0O    basis set group =>   1
Atom   1H    basis set group =>   2
Atom   2H    basis set group =>   2
----------------------------------
AUXILIARY/JK BASIS SET INFORMATION
----------------------------------
There are 2 groups of distinct atoms

 Group   1 Type O   : 14s10p6d2f1g contracted to 10s8p4d2f1g pattern {5111111111/31111111/3111/11/1}
 Group   2 Type H   : 4s2p2d contracted to 2s2p2d pattern {31/11/11}

Atom   0O    basis set group =>   1
Atom   1H    basis set group =>   2
Atom   2H    basis set group =>   2


           ************************************************************
           *        Program running with 24 parallel MPI-processes    *
           *              working on a common directory               *
           ************************************************************
------------------------------------------------------------------------------
                           ORCA GTO INTEGRAL CALCULATION
                           -- RI-GTO INTEGRALS CHOSEN --
------------------------------------------------------------------------------

                         BASIS SET STATISTICS AND STARTUP INFO

Gaussian basis set:
 # of primitive gaussian shells          ...   52
 # of primitive gaussian functions       ...  116
 # of contracted shells                  ...   32
 # of contracted basis functions         ...   92
 Highest angular momentum                ...    3
 Maximum contraction depth               ...    8
Auxiliary gaussian basis set:
 # of primitive gaussian shells          ...   49
 # of primitive gaussian functions       ...  137
 # of contracted shells                  ...   37
 # of contracted aux-basis functions     ...  113
 Highest angular momentum                ...    4
 Maximum contraction depth               ...    5
Ratio of auxiliary to basis functions    ...  1.23
Integral package used                  ... LIBINT
 One Electron integrals                  ... done
 Ordering auxiliary basis shells         ... done
 Integral threshhold             Thresh  ...  2.500e-11
 Primitive cut-off               TCut    ...  2.500e-12
 Pre-screening matrix                    ... done
 Shell pair data                         ... 
 Ordering of the shell pairs             ... done (   0.000 sec) 528 of 528 pairs
 Determination of significant pairs      ... done (   0.000 sec)
 Creation of shell pair data             ... done (   0.000 sec)
 Storage of shell pair data              ... done (   0.018 sec)
 Shell pair data done in (   0.019 sec)
 Computing two index integrals           ... done
 Cholesky decomposition of the V-matrix  ... done


Timings:
 Total evaluation time                   ...   0.162 sec (  0.003 min)
 One electron matrix time                ...   0.008 sec (  0.000 min) =  4.9%
 Schwartz matrix evaluation time         ...   0.106 sec (  0.002 min) = 65.3%
 Two index repulsion integral time       ...   0.000 sec (  0.000 min) =  0.2%
 Cholesky decomposition of V             ...   0.001 sec (  0.000 min) =  0.4%
 Three index repulsion integral time     ...   0.000 sec (  0.000 min) =  0.0%



           ************************************************************
           *        Program running with 24 parallel MPI-processes    *
           *              working on a common directory               *
           ************************************************************
-------------------------------------------------------------------------------
                                 ORCA SCF
-------------------------------------------------------------------------------

------------
SCF SETTINGS
------------
Hamiltonian:
 Density Functional     Method          .... DFT(GTOs)
 Exchange Functional    Exchange        .... B88
   X-Alpha parameter    XAlpha          ....  0.666667
   Becke's b parameter  XBeta           ....  0.004200
 Correlation Functional Correlation     .... LYP
 LDA part of GGA corr.  LDAOpt          .... VWN-5
 Gradients option       PostSCFGGA      .... off
 Hybrid DFT is turned on
   Fraction HF Exchange ScalHFX         ....  0.710000
   Scaling of DF-GGA-X  ScalDFX         ....  0.290000
   Scaling of DF-GGA-C  ScalDFC         ....  0.540000
   Scaling of DF-LDA-C  ScalLDAC        ....  0.540000
   Perturbative correction              ....  1.000000
   Density functional embedding theory  .... OFF
 RI-approximation to the Coulomb term is turned on
   Number of auxiliary basis functions  .... 113
   RI-JK (J+K treated both via RI)      .... on


General Settings:
 Integral files         IntName         .... 01_H2O
 Hartree-Fock type      HFTyp           .... RHF
 Total Charge           Charge          ....    0
 Multiplicity           Mult            ....    1
 Number of Electrons    NEL             ....   10
 Basis Dimension        Dim             ....   92
 Nuclear Repulsion      ENuc            ....      4.8574378178 Eh

Convergence Acceleration:
 DIIS                   CNVDIIS         .... on
   Start iteration      DIISMaxIt       ....    12
   Startup error        DIISStart       ....  0.200000
   # of expansion vecs  DIISMaxEq       ....     5
   Bias factor          DIISBfac        ....   1.050
   Max. coefficient     DIISMaxC        ....  10.000
 Newton-Raphson         CNVNR           .... off
 SOSCF                  CNVSOSCF        .... on
   Start iteration      SOSCFMaxIt      ....   150
   Startup grad/error   SOSCFStart      ....  0.003300
 Level Shifting         CNVShift        .... on
   Level shift para.    LevelShift      ....    0.2500
   Turn off err/grad.   ShiftErr        ....    0.0010
 Zerner damping         CNVZerner       .... off
 Static damping         CNVDamp         .... on
   Fraction old density DampFac         ....    0.7000
   Max. Damping (<1)    DampMax         ....    0.9800
   Min. Damping (>=0)   DampMin         ....    0.0000
   Turn off err/grad.   DampErr         ....    0.1000
 Fernandez-Rico         CNVRico         .... off

SCF Procedure:
 Maximum # iterations   MaxIter         ....   125
 SCF integral mode      SCFMode         .... Direct
   Integral package                     .... LIBINT
 Reset frequency        DirectResetFreq ....    20
 Integral Threshold     Thresh          ....  2.500e-11 Eh
 Primitive CutOff       TCut            ....  2.500e-12 Eh

Convergence Tolerance:
 Convergence Check Mode ConvCheckMode   .... Total+1el-Energy
 Convergence forced     ConvForced      .... 0
 Energy Change          TolE            ....  1.000e-08 Eh
 1-El. energy change                    ....  1.000e-05 Eh
 Orbital Gradient       TolG            ....  1.000e-05
 Orbital Rotation angle TolX            ....  1.000e-05
 DIIS Error             TolErr          ....  5.000e-07


Diagonalization of the overlap matrix:
Smallest eigenvalue                        ... 2.610e-03
Time for diagonalization                   ...    0.017 sec
Threshold for overlap eigenvalues          ... 1.000e-08
Number of eigenvalues below threshold      ... 0
Time for construction of square roots      ...    0.001 sec
Total time needed                          ...    0.018 sec

-------------------
DFT GRID GENERATION
-------------------

General Integration Accuracy     IntAcc      ...  4.670
Radial Grid Type                 RadialGrid  ... Gauss-Chebyshev
Angular Grid (max. acc.)         AngularGrid ... Lebedev-302
Angular grid pruning method      GridPruning ... 3 (G Style)
Weight generation scheme         WeightScheme... Becke
Basis function cutoff            BFCut       ...    1.0000e-11
Integration weight cutoff        WCut        ...    1.0000e-14
Grids for H and He will be reduced by one unit

# of grid points (after initial pruning)     ...  13000 (   0.0 sec)
# of grid points (after weights+screening)   ...  12960 (   0.0 sec)
nearest neighbour list constructed           ...    0.0 sec
Grid point re-assignment to atoms done       ...    0.0 sec
Grid point division into batches done        ...    0.0 sec
Reduced shell lists constructed in    0.1 sec

Total number of grid points                  ...    12960
Total number of batches                      ...      204
Average number of points per batch           ...       63
Average number of grid points per atom       ...     4320
Average number of shells per batch           ...    14.90 (46.56%)
Average number of basis functions per batch  ...    39.50 (42.93%)
Average number of large shells per batch     ...    10.80 (72.48%)
Average number of large basis fcns per batch ...    27.00 (68.35%)
Average number of aux-shells per batch       ...    14.90 (40.27%)
Average number of aux functions per batch    ...    39.50 (34.96%)
Maximum spatial batch extension              ...  13.24, 16.88, 11.34 au
Average spatial batch extension              ...   0.48,  0.49,  0.43 au

Time for grid setup =    0.078 sec

------------------------------
INITIAL GUESS: MODEL POTENTIAL
------------------------------
Loading Hartree-Fock densities                     ... done
Calculating cut-offs                               ... done
Setting up the integral package                    ... done
Initializing the effective Hamiltonian             ... done
Starting the Coulomb interaction                   ... done (   0.0 sec)
Reading the grid                                   ... done
Mapping shells                                     ... done
Starting the XC term evaluation                    ... done (   0.0 sec)
  promolecular density results
     # of electrons  =      9.999018782
     EX              =     -8.600879002
     EC              =     -0.020795267
     EX+EC           =     -8.621674269
Transforming the Hamiltonian                       ... done (   0.0 sec)
Diagonalizing the Hamiltonian                      ... done (   0.0 sec)
Back transforming the eigenvectors                 ... done (   0.0 sec)
Now organizing SCF variables                       ... done
                      ------------------
                      INITIAL GUESS DONE (   0.2 sec)
                      ------------------
--------------
SCF ITERATIONS
--------------
ITER       Energy         Delta-E        Max-DP      RMS-DP      [F,P]     Damp
  0    -75.6721217392   0.000000000000 0.05451889  0.00213482  0.4632636 0.7000
  1    -75.5020425245   0.170079214720 0.05886248  0.00227734  0.3424550 0.7000
                               ***Turning on DIIS***
  2    -75.5314553152  -0.029412790756 0.04018187  0.00148210  0.1112006 0.7000
  3    -75.6524037303  -0.120948415072 0.02437881  0.00086588  0.2907020 0.7000
  4    -75.7324037859  -0.080000055617 0.01588576  0.00046064  0.3244496 0.7000
  5    -75.7777937049  -0.045389919023 0.00837982  0.00033310  0.2791904 0.7000
  6    -75.8075875694  -0.029793864425 0.01029251  0.00032664  0.2278220 0.7000
  7    -75.8290232977  -0.021435728333 0.01264097  0.00046075  0.1918084 0.7000
  8    -75.8739995753  -0.044976277656 0.02427600  0.00081275  0.1527259 0.7000
  9    -75.9212616277  -0.047262052348 0.02578434  0.00090441  0.1222843 0.7000
 10    -75.9184451308   0.002816496901 0.05134204  0.00203745  0.0738604 0.0000
 11    -75.8572367938   0.061208337022 0.00566845  0.00024333  0.1009560 0.7000
 12    -75.8525401264   0.004696667388 0.00660877  0.00027697  0.1061108 0.7000
 13    -75.8561103927  -0.003570266362 0.02014310  0.00082822  0.0963411 0.0000
 14    -75.8845398528  -0.028429460075 0.00329355  0.00012048  0.0391554 0.0000
 15    -75.8860340333  -0.001494180496 0.00809016  0.00035088  0.0314843 0.0000
 16    -75.8883807397  -0.002346706376 0.00484533  0.00020801  0.0183823 0.0000
 17    -75.8891962970  -0.000815557356 0.00333483  0.00012963  0.0101498 0.0000
 18    -75.8894526503  -0.000256353233 0.00215117  0.00007469  0.0053089 0.0000
                      *** Initiating the SOSCF procedure ***
                           *** Shutting down DIIS ***
                      *** Re-Reading the Fockian *** 
                      *** Removing any level shift *** 
ITER      Energy       Delta-E        Grad      Rot      Max-DP    RMS-DP
 19    -75.88952356  -0.0000709084  0.001749  0.001749  0.001262  0.000039
 20    -75.88954183  -0.0000182694  0.001071  0.003292  0.001432  0.000040
 21    -75.88954439  -0.0000025608  0.001357  0.002092  0.001100  0.000032
 22    -75.88955418  -0.0000097894  0.000431  0.001949  0.000964  0.000032
 23    -75.88955691  -0.0000027302  0.000112  0.000690  0.000416  0.000013
 24    -75.88955727  -0.0000003656  0.000042  0.000074  0.000065  0.000002
 25    -75.88955730  -0.0000000223  0.000007  0.000017  0.000009  0.000000
                 **** Energy Check signals convergence ****
              ***Rediagonalizing the Fockian in SOSCF/NRSCF***

               *****************************************************
               *                     SUCCESS                       *
               *           SCF CONVERGED AFTER  26 CYCLES          *
               *****************************************************


----------------
TOTAL SCF ENERGY
----------------

Total Energy       :          -75.88955730 Eh           -2065.05984 eV

Components:
Nuclear Repulsion  :            4.85743782 Eh             132.17760 eV
Electronic Energy  :          -80.74699511 Eh           -2197.23744 eV
One Electron Energy:         -114.58482646 Eh           -3118.01164 eV
Two Electron Energy:           33.83783135 Eh             920.77420 eV

Virial components:
Potential Energy   :         -150.89247980 Eh           -4105.99312 eV
Kinetic Energy     :           75.00292250 Eh            2040.93328 eV
Virial Ratio       :            2.01182134


DFT components:
N(Alpha)           :        5.000017568506 electrons
N(Beta)            :        5.000017568506 electrons
N(Total)           :       10.000035137012 electrons
E(X)               :       -2.489372644182 Eh       
E(C)               :       -0.172121162578 Eh       
E(XC)              :       -2.661493806760 Eh       
DFET-embed. en.    :        0.000000000000 Eh       

---------------
SCF CONVERGENCE
---------------

  Last Energy change         ...   -7.0222e-10  Tolerance :   1.0000e-08
  Last MAX-Density change    ...    2.4873e-06  Tolerance :   1.0000e-07
  Last RMS-Density change    ...    8.5486e-08  Tolerance :   5.0000e-09
  Last Orbital Gradient      ...    1.0362e-06  Tolerance :   1.0000e-05
  Last Orbital Rotation      ...    4.6250e-06  Tolerance :   1.0000e-05

             **** THE GBW FILE WAS UPDATED (01_H2O.gbw) ****
             **** DENSITY FILE WAS UPDATED (01_H2O.scfp) ****
             **** ENERGY FILE WAS UPDATED (01_H2O.en.tmp) ****
             **** THE GBW FILE WAS UPDATED (01_H2O.gbw) ****
             **** DENSITY FILE WAS UPDATED (01_H2O.scfp) ****
----------------
ORBITAL ENERGIES
----------------

  NO   OCC          E(Eh)            E(eV) 
   0   2.0000     -20.137932      -547.9810 
   1   2.0000      -1.092520       -29.7290 
   2   2.0000      -0.435115       -11.8401 
   3   2.0000      -0.423659       -11.5283 
   4   2.0000      -0.406417       -11.0592 
   5   0.0000      -0.081420        -2.2156 
   6   0.0000      -0.048555        -1.3212 
   7   0.0000       0.055483         1.5098 
   8   0.0000       0.056541         1.5385 
   9   0.0000       0.131122         3.5680 
  10   0.0000       0.143430         3.9029 
  11   0.0000       0.182537         4.9671 
  12   0.0000       0.191939         5.2229 
  13   0.0000       0.212840         5.7917 
  14   0.0000       0.242757         6.6057 
  15   0.0000       0.259564         7.0631 
  16   0.0000       0.284159         7.7324 
  17   0.0000       0.295287         8.0352 
  18   0.0000       0.300488         8.1767 
  19   0.0000       0.508970        13.8498 
  20   0.0000       0.545232        14.8365 
  21   0.0000       0.648750        17.6534 
  22   0.0000       0.675837        18.3905 
  23   0.0000       0.679137        18.4803 
  24   0.0000       0.702907        19.1271 
  25   0.0000       0.725582        19.7441 
  26   0.0000       0.778083        21.1727 
  27   0.0000       0.815460        22.1898 
  28   0.0000       0.823990        22.4219 
  29   0.0000       0.836857        22.7720 
  30   0.0000       0.838480        22.8162 
  31   0.0000       0.878397        23.9024 
  32   0.0000       0.916623        24.9426 
  33   0.0000       0.934840        25.4383 
  34   0.0000       0.945358        25.7245 
  35   0.0000       0.947924        25.7943 
  36   0.0000       0.987930        26.8829 
  37   0.0000       1.046595        28.4793 
  38   0.0000       1.074631        29.2422 
  39   0.0000       1.090667        29.6786 
  40   0.0000       1.098899        29.9026 
  41   0.0000       1.198661        32.6172 
  42   0.0000       1.201665        32.6990 
  43   0.0000       1.337943        36.4073 
  44   0.0000       1.590097        43.2687 
  45   0.0000       1.865143        50.7531 
  46   0.0000       2.065225        56.1976 
  47   0.0000       2.075292        56.4716 
  48   0.0000       2.109910        57.4136 
  49   0.0000       2.143463        58.3266 
  50   0.0000       2.174083        59.1598 
  51   0.0000       2.196124        59.7596 
  52   0.0000       2.241076        60.9828 
  53   0.0000       2.254638        61.3518 
  54   0.0000       2.298225        62.5379 
  55   0.0000       2.373688        64.5913 
  56   0.0000       2.422968        65.9323 
  57   0.0000       2.449114        66.6438 
  58   0.0000       2.924053        79.5675 
  59   0.0000       2.939012        79.9746 
  60   0.0000       3.699695       100.6738 
  61   0.0000       3.721379       101.2639 
  62   0.0000       3.750172       102.0474 
  63   0.0000       3.753207       102.1300 
  64   0.0000       3.777709       102.7967 
  65   0.0000       3.803611       103.5015 
  66   0.0000       3.845806       104.6497 
  67   0.0000       3.897232       106.0491 
  68   0.0000       3.970372       108.0393 
  69   0.0000       3.977577       108.2354 
  70   0.0000       3.978868       108.2705 
  71   0.0000       4.023996       109.4985 
  72   0.0000       4.109152       111.8157 
  73   0.0000       4.158343       113.1543 
  74   0.0000       4.170127       113.4749 
  75   0.0000       4.235690       115.2590 
  76   0.0000       4.376028       119.0778 
  77   0.0000       4.506642       122.6320 
  78   0.0000       4.584903       124.7616 
  79   0.0000       6.374599       173.4616 
  80   0.0000       6.412528       174.4938 
  81   0.0000       6.484006       176.4388 
  82   0.0000       6.484137       176.4423 
  83   0.0000       6.520465       177.4309 
  84   0.0000       6.631508       180.4525 
  85   0.0000       6.691592       182.0875 
  86   0.0000       6.883616       187.3127 
  87   0.0000       6.892528       187.5552 
  88   0.0000       6.905290       187.9025 
  89   0.0000       6.971786       189.7119 
  90   0.0000       7.146745       194.4728 
  91   0.0000      10.145917       276.0844 

                    ********************************
                    * MULLIKEN POPULATION ANALYSIS *
                    ********************************

-----------------------
MULLIKEN ATOMIC CHARGES
-----------------------
   0 O :   -0.501582
   1 H :    0.250791
   2 H :    0.250791
Sum of atomic charges:    0.0000000

--------------------------------
MULLIKEN REDUCED ORBITAL CHARGES
--------------------------------
  0 O s       :     3.972949  s :     3.972949
      pz      :     1.270817  p :     4.508939
      px      :     1.986568
      py      :     1.251554
      dz2     :     0.000855  d :     0.018219
      dxz     :     0.000313
      dyz     :     0.014290
      dx2y2   :     0.002761
      dxy     :    -0.000000
      f0      :    -0.000042  f :     0.001474
      f+1     :     0.000025
      f-1     :     0.000183
      f+2     :     0.000761
      f-2     :    -0.000000
      f+3     :     0.000088
      f-3     :     0.000459
  1 H s       :     0.727019  s :     0.727019
      pz      :     0.004359  p :     0.019527
      px      :     0.005409
      py      :     0.009758
      dz2     :     0.000334  d :     0.002664
      dxz     :     0.000425
      dyz     :     0.000450
      dx2y2   :     0.000786
      dxy     :     0.000668
  2 H s       :     0.727019  s :     0.727019
      pz      :     0.004359  p :     0.019527
      px      :     0.005409
      py      :     0.009758
      dz2     :     0.000334  d :     0.002664
      dxz     :     0.000425
      dyz     :     0.000450
      dx2y2   :     0.000786
      dxy     :     0.000668


                     *******************************
                     * LOEWDIN POPULATION ANALYSIS *
                     *******************************

----------------------
LOEWDIN ATOMIC CHARGES
----------------------
   0 O :   -0.202523
   1 H :    0.101261
   2 H :    0.101261

-------------------------------
LOEWDIN REDUCED ORBITAL CHARGES
-------------------------------
  0 O s       :     3.709828  s :     3.709828
      pz      :     1.279837  p :     4.435236
      px      :     1.899491
      py      :     1.255909
      dz2     :     0.000115  d :     0.052155
      dxz     :     0.000442
      dyz     :     0.035677
      dx2y2   :     0.015920
      dxy     :     0.000000
      f0      :     0.000624  f :     0.005304
      f+1     :     0.000012
      f-1     :     0.001285
      f+2     :     0.002682
      f-2     :     0.000000
      f+3     :     0.000071
      f-3     :     0.000630
  1 H s       :     0.658155  s :     0.658155
      pz      :     0.045825  p :     0.127482
      px      :     0.021737
      py      :     0.059920
      dz2     :     0.015304  d :     0.113102
      dxz     :     0.010738
      dyz     :     0.048184
      dx2y2   :     0.021358
      dxy     :     0.017517
  2 H s       :     0.658155  s :     0.658155
      pz      :     0.045825  p :     0.127482
      px      :     0.021737
      py      :     0.059920
      dz2     :     0.015304  d :     0.113102
      dxz     :     0.010738
      dyz     :     0.048184
      dx2y2   :     0.021358
      dxy     :     0.017517


                      *****************************
                      * MAYER POPULATION ANALYSIS *
                      *****************************

  NA   - Mulliken gross atomic population
  ZA   - Total nuclear charge
  QA   - Mulliken gross atomic charge
  VA   - Mayer's total valence
  BVA  - Mayer's bonded valence
  FA   - Mayer's free valence

  ATOM       NA         ZA         QA         VA         BVA        FA
  0 O      8.5016     8.0000    -0.5016     1.8841     1.8841     0.0000
  1 H      0.7492     1.0000     0.2508     0.9538     0.9538    -0.0000
  2 H      0.7492     1.0000     0.2508     0.9538     0.9538    -0.0000

  Mayer bond orders larger than 0.100000
B(  0-O ,  1-H ) :   0.9421 B(  0-O ,  2-H ) :   0.9421 

-------
TIMINGS
-------

Total SCF time: 0 days 0 hours 0 min 2 sec 

Total time                  ....       2.531 sec
Sum of individual times     ....       2.415 sec  ( 95.4%)

Fock matrix formation       ....       2.186 sec  ( 86.4%)
  XC integration            ....       0.235 sec  ( 10.7% of F)
    Basis function eval.    ....       0.034 sec  ( 14.5% of XC)
    Density eval.           ....       0.017 sec  (  7.3% of XC)
    XC-Functional eval.     ....       0.012 sec  (  5.1% of XC)
    XC-Potential eval.      ....       0.033 sec  ( 14.0% of XC)
Diagonalization             ....       0.022 sec  (  0.9%)
Density matrix formation    ....       0.007 sec  (  0.3%)
Population analysis         ....       0.002 sec  (  0.1%)
Initial guess               ....       0.100 sec  (  4.0%)
Orbital Transformation      ....       0.000 sec  (  0.0%)
Orbital Orthonormalization  ....       0.000 sec  (  0.0%)
DIIS solution               ....       0.016 sec  (  0.6%)
SOSCF solution              ....       0.004 sec  (  0.2%)
Grid generation             ....       0.078 sec  (  3.1%)


           ************************************************************
           *        Program running with 24 parallel MPI-processes    *
           *              working on a common directory               *
           ************************************************************

------------------------------------------------------------------------------
                                ORCA  MP2 
------------------------------------------------------------------------------

Freezing NCore=2 chemical core electrons

----------------------
RI-MP2 ENERGY+GRADIENT
----------------------
Dimension of the basis                    ...   92
Memory devoted to MP2                     ... 5000 MB   
Data format for buffers                   ... DOUBLE
Compression type for matrix containers    ... UNCOMPRESSED
Scaling for aa/bb pairs                   ...   4.000e-01
Scaling for ab pairs                      ...   4.700e-01
Overall scaling of the MP2 energy         ...   1.000e+00
Calculating two index integrals           ... done (    0.000 sec)
Cholesky decomposition of the V-matrix    ... done
Cholesky decomposition of V**-1           ... done (    0.048 sec)

-----------------
RI-TRANSFORMATION (AUX index driven)
-----------------

Dimension of the orbital-basis         ... 92
Dimension of the aux-basis             ... 106
Transformation of internal MOs         ...    0-   4
Transformation of internal/external MOs...    0-   4 to    5-  91
Number Format for Storage              ... Double (8 Byte)
Integral mode                          ... Direct

First Phase: integral generation and transformation of MO indices
  Aux angular momentum 0               ... done (    0.000 sec)
  Aux angular momentum 1               ... done (    0.000 sec)
  Aux angular momentum 2               ... done (    0.001 sec)
  Aux angular momentum 3               ... done (    0.001 sec)
  Aux angular momentum 4               ... done (    0.001 sec)
Closing buffer VIJ ( 0.00 GB; CompressionRatio= 0.91)
Closing buffer VIA ( 0.00 GB; CompressionRatio= 1.00)
  Phase 1 completed in     0.103 sec
Second Phase: sorting and transformation of aux index

IJ-Transformation
Memory available                       ... 4998 MB 
Max. # MO pairs treated in a batch     ... 1    
# of internal orbitals                 ... 5
# batches for internal orbitals        ... 1
Closing buffer IJV ( 0.00 GB; CompressionRatio= 0.99)
(ij|v) transformation done in     0.001 sec

IA-Transformation
Memory available                       ... 4998 MB 
Max. # MO pairs treated in a batch     ... 1    
# of internal orbitals                 ... 5
# batches for internal orbitals        ... 1
Closing buffer IAV ( 0.00 GB; CompressionRatio= 1.00)
(ia|v) transformation done in     0.001 sec

  Phase 2 completed in     0.021 sec
RI-Integral transformation completed in     0.127 sec
Opening buffers                              ... done
Frozen core precalculation                   ... done

Starting loop over batches of integrals:

Operator 0  - window                       ... (  1-  4)x(  5- 91)
Operator 0  - Memory available             ...  5000 MB
Operator 0  - Memory needed per MO         ...   0.1 MB
Operator 0  - Number of orbitals per batch ... 1
Operator 0  - Number of batches            ... 1

OPERATOR  0   PASS   0:  MOs     1 ...    1 +    2 ...    2 +    3 ...    3 +    4 ...    4
  Reading integrals       ... ok
Closing buffer GIPV ( 0.00 GB; CompressionRatio= 1.00)
Time spent in pair loops =     0.016 sec
Deleting buffer (Ka|jb)[aa] ...done

-----------------------------------------------
 RI-MP2 CORRELATION ENERGY:     -0.193508259 Eh
-----------------------------------------------


---------------------
MP2 DENSITY FORMATION
---------------------

Completing the external part of the density      ... done
Storing the unrelaxed density                    ... done

Calculating the xc-kernel                        ... done
Calculating G(D)                                 ... done
Completing the Lagrangian                        ... done
Solving the Z-vector equations                   ... 

------------------------------------------------------------------------------
                           ORCA CP-SCF CALCULATION
------------------------------------------------------------------------------

Input orbitals are from        ... 01_H2O.gbw
Input Perturbation             ... 01_H2O.pin.tmp
Wavefunction output            ... 01_H2O.pout.tmp
Perturbation mode              ... Real perturbation (singlet)
Solver                         ... POPLE
Max. number of iterations      ... 128
Convergence tolerance          ... 1.000e-08
Integral handling              ... Direct
Number of perturbations        ... 1
Number of operators            ... 1
Orbital ranges used for CP-SCF:
 Operator 0:  Orbitals   0...  4  to   5... 91
DFT calculation                         ... on
Exchange functional (SCF)               ... B88
Exchange functional (CP-SCF)            ... B88
   X-Alpha parameter    XAlpha (SCF)    ...  0.666667
   X-Alpha parameter    XAlpha (CP-SCF) ...  0.666667
   Becke's b parameter  XBeta (SCF)     ...  0.004200
   Becke's b parameter  XBeta (CP-SCF)  ...  0.004200
Correlation functional (SCF)            ... LYP
Correlation functional (CP-SCF)         ... LYP
 LDA part of GGA corr.  LDAOpt (SCF)    ... VWN-5
 LDA part of GGA corr.  LDAOpt (CP-SCF) ... VWN-5
Hybrid DFT                              ... on
   Exchange mixing (SCF)                ...  0.710
   Exchange mixing (CP-SCF)             ...  0.710
   GGA exch. scaling(SCF)               ...  0.290
   GGA exch. scaling (CP-SCF)           ...  0.290
   GGA corr. scaling (SCF)              ...  0.540
   GGA corr. scaling (CP-SCF)           ...  0.540
Variables per vector in CP-SCF ... 435
Number of vectors sought       ... 1
Recalculating density on grid  ... done
Calculating the xc-kernel      ... done
     CP-SCF ITERATION   0: 
     CP-SCF ITERATION   1:      0.007850868578
     CP-SCF ITERATION   2:      0.000183941912
     CP-SCF ITERATION   3:      0.000091270098
     CP-SCF ITERATION   4:      0.000010548643
     CP-SCF ITERATION   5:      0.000000147562
     CP-SCF ITERATION   6:      0.000000001254
done
Finalizing the relaxed density                   ... done
Transforming P to the AO basis                   ... done
Storing the relaxed density                      ... done

------------------------------------
ENERGY WEIGHTED DENSITY FINALIZATION
------------------------------------

Gathering the parts of the W-matrix              ... done
Forming the Z-density                            ... done
Transforming Z to the AO basis                   ... done
Calculating G(Z)                                 ... done
Finalizing the W-matrix                          ... done
Transforming W to the AO basis and storing       ... done
Entering the RIJONX and RIJCOSX sections
Starting the three-index derivative integrals:
Operator 0  - Memory available             ...  5000 MB
Operator 0  - Memory needed per MO         ...   0.1 MB
Operator 0  - Number of orbitals per batch ... 1
Operator 0  - Number of batches            ... 1

OPERATOR  0   PASS   0:  MOs     1 ...    1 +    2 ...    2 +    3 ...    3 +    4 ...    4

----------------------------------
MP2 DERIVATIVE INTEGRAL GENERATION
----------------------------------


Input Correlated Electron Density   ... 01_H2O.pmp2re
Input Energy Weighted Density       ... 01_H2O.wmp2.tmp
Input SCF Electron Density          ... 01_H2O.scfp

One-Electron Terms    ...
                        ... One-Electron Terms done
Prescreening matrices              ... done
Exchange-correlation gradient    ... done
Dispersion correction            ... done

                *********************************************
                * UNRELAXED MP2 DENSITY POPULATION ANALYSIS *
                *********************************************

------------------------------------------------------------------------------
                           ORCA POPULATION ANALYSIS
------------------------------------------------------------------------------
Input electron density              ... 01_H2O.pmp2ur
BaseName (.gbw .S,...)              ... 01_H2O

                    ********************************
                    * MULLIKEN POPULATION ANALYSIS *
                    ********************************

-----------------------
MULLIKEN ATOMIC CHARGES
-----------------------
   0 O :   -0.464126
   1 H :    0.232063
   2 H :    0.232063
Sum of atomic charges:   -0.0000000

--------------------------------
MULLIKEN REDUCED ORBITAL CHARGES
--------------------------------
  0 O s       :     3.964923  s :     3.964923
      pz      :     1.251104  p :     4.462918
      px      :     1.977147
      py      :     1.234668
      dz2     :     0.003882  d :     0.033099
      dxz     :     0.003517
      dyz     :     0.016733
      dx2y2   :     0.005665
      dxy     :     0.003303
      f0      :     0.000215  f :     0.003186
      f+1     :     0.000286
      f-1     :     0.000414
      f+2     :     0.000954
      f-2     :     0.000271
      f+3     :     0.000357
      f-3     :     0.000689
  1 H s       :     0.743587  s :     0.743587
      pz      :     0.005022  p :     0.021439
      px      :     0.006621
      py      :     0.009797
      dz2     :     0.000360  d :     0.002910
      dxz     :     0.000492
      dyz     :     0.000506
      dx2y2   :     0.000764
      dxy     :     0.000788
  2 H s       :     0.743587  s :     0.743587
      pz      :     0.005022  p :     0.021439
      px      :     0.006621
      py      :     0.009797
      dz2     :     0.000360  d :     0.002910
      dxz     :     0.000492
      dyz     :     0.000506
      dx2y2   :     0.000764
      dxy     :     0.000788


                     *******************************
                     * LOEWDIN POPULATION ANALYSIS *
                     *******************************

----------------------
LOEWDIN ATOMIC CHARGES
----------------------
   0 O :   -0.170572
   1 H :    0.085286
   2 H :    0.085286

-------------------------------
LOEWDIN REDUCED ORBITAL CHARGES
-------------------------------
  0 O s       :     3.704308  s :     3.704308
      pz      :     1.260457  p :     4.388823
      px      :     1.888900
      py      :     1.239466
      dz2     :     0.003126  d :     0.069950
      dxz     :     0.003505
      dyz     :     0.040642
      dx2y2   :     0.019458
      dxy     :     0.003220
      f0      :     0.000916  f :     0.007491
      f+1     :     0.000271
      f-1     :     0.001589
      f+2     :     0.003142
      f-2     :     0.000270
      f+3     :     0.000341
      f-3     :     0.000963
  1 H s       :     0.669421  s :     0.669421
      pz      :     0.047298  p :     0.131932
      px      :     0.023508
      py      :     0.061125
      dz2     :     0.014718  d :     0.113362
      dxz     :     0.010846
      dyz     :     0.048688
      dx2y2   :     0.021376
      dxy     :     0.017733
  2 H s       :     0.669421  s :     0.669421
      pz      :     0.047298  p :     0.131932
      px      :     0.023508
      py      :     0.061125
      dz2     :     0.014718  d :     0.113362
      dxz     :     0.010846
      dyz     :     0.048688
      dx2y2   :     0.021376
      dxy     :     0.017733


                      *****************************
                      * MAYER POPULATION ANALYSIS *
                      *****************************

  NA   - Mulliken gross atomic population
  ZA   - Total nuclear charge
  QA   - Mulliken gross atomic charge
  VA   - Mayer's total valence
  BVA  - Mayer's bonded valence
  FA   - Mayer's free valence

  ATOM       NA         ZA         QA         VA         BVA        FA
  0 O      8.4641     8.0000    -0.4641     2.1586     1.5439     0.6147
  1 H      0.7679     1.0000     0.2321     0.9709     0.7838     0.1871
  2 H      0.7679     1.0000     0.2321     0.9709     0.7838     0.1871

  Mayer bond orders larger than 0.100000
B(  0-O ,  1-H ) :   0.7720 B(  0-O ,  2-H ) :   0.7720 


                *******************************************
                * RELAXED MP2 DENSITY POPULATION ANALYSIS *
                *******************************************

------------------------------------------------------------------------------
                           ORCA POPULATION ANALYSIS
------------------------------------------------------------------------------
Input electron density              ... 01_H2O.pmp2re
BaseName (.gbw .S,...)              ... 01_H2O

                    ********************************
                    * MULLIKEN POPULATION ANALYSIS *
                    ********************************

-----------------------
MULLIKEN ATOMIC CHARGES
-----------------------
   0 O :   -0.433776
   1 H :    0.216888
   2 H :    0.216888
Sum of atomic charges:   -0.0000000

--------------------------------
MULLIKEN REDUCED ORBITAL CHARGES
--------------------------------
  0 O s       :     3.970153  s :     3.970153
      pz      :     1.214017  p :     4.432471
      px      :     1.965914
      py      :     1.252540
      dz2     :     0.003770  d :     0.028082
      dxz     :     0.003657
      dyz     :     0.012537
      dx2y2   :     0.004816
      dxy     :     0.003303
      f0      :     0.000199  f :     0.003070
      f+1     :     0.000293
      f-1     :     0.000383
      f+2     :     0.000906
      f-2     :     0.000271
      f+3     :     0.000370
      f-3     :     0.000649
  1 H s       :     0.755309  s :     0.755309
      pz      :     0.005555  p :     0.023687
      px      :     0.011217
      py      :     0.006914
      dz2     :     0.000389  d :     0.004116
      dxz     :     0.000768
      dyz     :     0.000775
      dx2y2   :     0.000733
      dxy     :     0.001452
  2 H s       :     0.755309  s :     0.755309
      pz      :     0.005555  p :     0.023687
      px      :     0.011217
      py      :     0.006914
      dz2     :     0.000389  d :     0.004116
      dxz     :     0.000768
      dyz     :     0.000775
      dx2y2   :     0.000733
      dxy     :     0.001452


                     *******************************
                     * LOEWDIN POPULATION ANALYSIS *
                     *******************************

----------------------
LOEWDIN ATOMIC CHARGES
----------------------
   0 O :   -0.147629
   1 H :    0.073815
   2 H :    0.073815

-------------------------------
LOEWDIN REDUCED ORBITAL CHARGES
-------------------------------
  0 O s       :     3.703032  s :     3.703032
      pz      :     1.235645  p :     4.369175
      px      :     1.871157
      py      :     1.262373
      dz2     :     0.003071  d :     0.067479
      dxz     :     0.003369
      dyz     :     0.038176
      dx2y2   :     0.019643
      dxy     :     0.003220
      f0      :     0.000959  f :     0.007943
      f+1     :     0.000271
      f-1     :     0.001618
      f+2     :     0.003487
      f-2     :     0.000270
      f+3     :     0.000336
      f-3     :     0.001002
  1 H s       :     0.675741  s :     0.675741
      pz      :     0.047404  p :     0.135977
      px      :     0.030679
      py      :     0.057894
      dz2     :     0.013623  d :     0.114468
      dxz     :     0.011370
      dyz     :     0.049469
      dx2y2   :     0.021026
      dxy     :     0.018980
  2 H s       :     0.675741  s :     0.675741
      pz      :     0.047404  p :     0.135977
      px      :     0.030679
      py      :     0.057894
      dz2     :     0.013623  d :     0.114468
      dxz     :     0.011370
      dyz     :     0.049469
      dx2y2   :     0.021026
      dxy     :     0.018980


                      *****************************
                      * MAYER POPULATION ANALYSIS *
                      *****************************

  NA   - Mulliken gross atomic population
  ZA   - Total nuclear charge
  QA   - Mulliken gross atomic charge
  VA   - Mayer's total valence
  BVA  - Mayer's bonded valence
  FA   - Mayer's free valence

  ATOM       NA         ZA         QA         VA         BVA        FA
  0 O      8.4338     8.0000    -0.4338     2.1614     1.5765     0.5849
  1 H      0.7831     1.0000     0.2169     0.9873     0.8020     0.1852
  2 H      0.7831     1.0000     0.2169     0.9873     0.8020     0.1852

  Mayer bond orders larger than 0.100000
B(  0-O ,  1-H ) :   0.7882 B(  0-O ,  2-H ) :   0.7882 


-------
TIMINGS
-------

Total time                :    2.471 sec
Integral trafo            :    0.139 sec (  5.6%)
FC preparation            :    0.003 sec (  0.1%)
I/O of integrals          :    0.000 sec (  0.0%)
K(i,j) Operators          :    0.000 sec (  0.0%)
T(i,j) pair energies      :    0.000 sec (  0.0%)
V-calculation             :    0.000 sec (  0.0%)
V**(-1/2)                 :    0.048 sec (  2.0%)
Gamma(ia|P)               :    0.000 sec (  0.0%)
Gamma-Trafo               :    0.000 sec (  0.0%)
D(virtual)                :    0.000 sec (  0.0%)
D(internal)               :    0.000 sec (  0.0%)
W(virtual)                :    0.000 sec (  0.0%)
W(internal)               :    0.000 sec (  0.0%)
L(virtual)                :    0.012 sec (  0.5%)
L(internal)               :    0.000 sec (  0.0%)
G(D)                      :    0.224 sec (  9.1%)
G(Z)                      :    0.216 sec (  8.7%)
Z-Vector Solution         :    1.214 sec ( 49.1%)
Z-Vector Solution         :    1.214 sec ( 49.1%)
3-Index Derivative 
+ Separable RIJ part      :    0.048 sec (  1.9%)
2-Index Derivative 
+ Separable RIJ part      :    0.000 sec (  0.0%)
Separable Gradient (X)    :    0.376 sec ( 15.2%)


---------------------------------------
MP2 TOTAL ENERGY:      -76.083065556 Eh
---------------------------------------

-----------------------------------
NORM OF THE MP2 GRADIENT:  0.136444
-----------------------------------


-------------------------------------------------------------------------------
                          DFT DISPERSION CORRECTION                            
                                                                               
                              DFTD3 V3.1  Rev 1                                
                          USING Becke-Johnson damping                          
-------------------------------------------------------------------------------
The DSD-BLYP/2013 functional is recognized
Active option DFTDOPT                   ...         4   

molecular C6(AA) [au] = 85.319616 


            DFT-D V3
 parameters
 s6 scaling factor         :     0.5700 
 a1 scaling factor         :     0.0000 
 s8 scaling factor         :     0.0000 
 a2 scaling factor         :     5.4000 
 ad hoc parameters k1-k3   :    16.0000     1.3333    -4.0000 

 Edisp/kcal,au: -0.326174221333  -0.000519791653 
 E6   /kcal   :  -0.326174221 
 E8   /kcal   :  -0.000000000 
 % E8         :   0.000000000 

-------------------------   ----------------
Dispersion correction           -0.000519792
-------------------------   ----------------


-------------------------   --------------------
FINAL SINGLE POINT ENERGY       -76.083585347813
-------------------------   --------------------

------------------------------------------------------------------------------
                         ORCA GEOMETRY RELAXATION STEP
------------------------------------------------------------------------------

Reading the OPT-File                    .... done
Getting information on internals        .... done
Copying old internal coords+grads       .... done
Making the new internal coordinates     .... (new redundants).... done
Validating the new internal coordinates .... (new redundants).... done
Calculating the B-matrix                .... done
Calculating the G,G- and P matrices     .... done
Transforming gradient to internals      .... done
Projecting the internal gradient        .... done
Number of atoms                         ....   3
Number of internal coordinates          ....   3
Current Energy                          ....   -76.083585348 Eh
Current gradient norm                   ....     0.136444354 Eh/bohr
Maximum allowed component of the step   ....  0.300
Current trust radius                    ....  0.300
Evaluating the initial hessian          ....  (Almloef) done
Projecting the Hessian                  .... done
Forming the augmented Hessian           .... done
Diagonalizing the augmented Hessian     .... done
Last element of RFO vector              ....  0.744697226
Lowest eigenvalues of augmented Hessian:
 -0.098391104  0.022731116  0.112842036
Length of the computed step             ....  0.896206452
Warning: the length of the step is outside the trust region - taking restricted step instead
The input lambda is                     ....    -0.098391
   iter:   1  x=   -0.152472  g=   13.187415 f(x)=     0.713186
   iter:   2  x=   -0.220063  g=    4.373315 f(x)=     0.295599
   iter:   3  x=   -0.287734  g=    1.650033 f(x)=     0.111658
   iter:   4  x=   -0.330333  g=    0.791866 f(x)=     0.033733
   iter:   5  x=   -0.341151  g=    0.539414 f(x)=     0.005835
   iter:   6  x=   -0.341671  g=    0.492934 f(x)=     0.000256
   iter:   7  x=   -0.341672  g=    0.490836 f(x)=     0.000001
   iter:   8  x=   -0.341672  g=    0.490831 f(x)=     0.000000
   iter:   9  x=   -0.341672  g=    0.490831 f(x)=     0.000000
The output lambda is                    ....    -0.341672 (9 iterations)
The final length of the internal step   ....  0.300000000
Converting the step to cartesian space:
 Initial RMS(Int)=    0.1732050808
Transforming coordinates:
 Iter   0:  RMS(Cart)=    0.1030176674 RMS(Int)=    0.1726670349
 Iter   1:  RMS(Cart)=    0.0017380674 RMS(Int)=    0.0021128289
 Iter   2:  RMS(Cart)=    0.0000990778 RMS(Int)=    0.0001580898
 Iter   3:  RMS(Cart)=    0.0000053984 RMS(Int)=    0.0000088466
 Iter   4:  RMS(Cart)=    0.0000002909 RMS(Int)=    0.0000004798
 Iter   5:  RMS(Cart)=    0.0000000156 RMS(Int)=    0.0000000258
done
Storing new coordinates                 .... done

                                .--------------------.
          ----------------------|Geometry convergence|-------------------------
          Item                value                   Tolerance       Converged
          ---------------------------------------------------------------------
          RMS gradient        0.0637374622            0.0001000000      NO
          MAX gradient        0.0763244100            0.0003000000      NO
          RMS step            0.1732050808            0.0020000000      NO
          MAX step            0.2094502679            0.0040000000      NO
          ........................................................
          Max(Bonds)      0.1108      Max(Angles)    2.72
          Max(Dihed)        0.00      Max(Improp)    0.00
          ---------------------------------------------------------------------

The optimization has not yet converged - more geometry cycles are needed


    ---------------------------------------------------------------------------
                         Redundant Internal Coordinates
                            (Angstroem and degrees)

        Definition                    Value    dE/dq     Step     New-Value
    ----------------------------------------------------------------------------
     1. B(H   1,O   0)                1.8120  0.076324 -0.1108    1.7012   
     2. B(H   2,O   0)                1.8120  0.076324 -0.1108    1.7012   
     3. A(H   1,O   0,H   2)          104.36  0.023164   -2.72    101.64   
    ----------------------------------------------------------------------------

         *************************************************************
         *                GEOMETRY OPTIMIZATION CYCLE   2            *
         *************************************************************
---------------------------------
CARTESIAN COORDINATES (ANGSTROEM)
---------------------------------
  O      0.000000   -0.000000    0.100142
  H      0.000000   -1.318660   -0.974645
  H      0.000000    1.318660   -0.974645

----------------------------
CARTESIAN COORDINATES (A.U.)
----------------------------
  NO LB      ZA    FRAG     MASS         X           Y           Z
   0 O     8.0000    0    15.999    0.000000   -0.000000    0.189241
   1 H     1.0000    0     1.008    0.000000   -2.491906   -1.841812
   2 H     1.0000    0     1.008    0.000000    2.491906   -1.841812

--------------------------------
INTERNAL COORDINATES (ANGSTROEM)
--------------------------------
 O      0   0   0     0.000000000000     0.00000000     0.00000000
 H      1   0   0     1.701185219256     0.00000000     0.00000000
 H      1   2   0     1.701185225178   101.63580215     0.00000000

---------------------------
INTERNAL COORDINATES (A.U.)
---------------------------
 O      0   0   0     0.000000000000     0.00000000     0.00000000
 H      1   0   0     3.214774167469     0.00000000     0.00000000
 H      1   2   0     3.214774178659   101.63580215     0.00000000



           ************************************************************
           *        Program running with 24 parallel MPI-processes    *
           *              working on a common directory               *
           ************************************************************
 One Electron integrals                  ... done
 Pre-screening matrix                    ... done


           ************************************************************
           *        Program running with 24 parallel MPI-processes    *
           *              working on a common directory               *
           ************************************************************

Diagonalization of the overlap matrix:
Smallest eigenvalue                        ... 2.057e-03
Time for diagonalization                   ...    0.002 sec
Threshold for overlap eigenvalues          ... 1.000e-08
Number of eigenvalues below threshold      ... 0
Time for construction of square roots      ...    0.001 sec
Total time needed                          ...    0.004 sec

-------------------
DFT GRID GENERATION
-------------------

General Integration Accuracy     IntAcc      ...  4.670
Radial Grid Type                 RadialGrid  ... Gauss-Chebyshev
Angular Grid (max. acc.)         AngularGrid ... Lebedev-302
Angular grid pruning method      GridPruning ... 3 (G Style)
Weight generation scheme         WeightScheme... Becke
Basis function cutoff            BFCut       ...    1.0000e-11
Integration weight cutoff        WCut        ...    1.0000e-14
Grids for H and He will be reduced by one unit

# of grid points (after initial pruning)     ...  13000 (   0.0 sec)
# of grid points (after weights+screening)   ...  12944 (   0.0 sec)
nearest neighbour list constructed           ...    0.0 sec
Grid point re-assignment to atoms done       ...    0.0 sec
Grid point division into batches done        ...    0.0 sec
Reduced shell lists constructed in    0.0 sec

Total number of grid points                  ...    12944
Total number of batches                      ...      204
Average number of points per batch           ...       63
Average number of grid points per atom       ...     4315
Average number of shells per batch           ...    14.80 (46.25%)
Average number of basis functions per batch  ...    38.20 (41.52%)
Average number of large shells per batch     ...     9.80 (66.22%)
Average number of large basis fcns per batch ...    24.80 (64.92%)
Average number of aux-shells per batch       ...    14.80 (40.00%)
Average number of aux functions per batch    ...    38.20 (33.81%)
Maximum spatial batch extension              ...  13.13, 16.88, 13.99 au
Average spatial batch extension              ...   0.50,  0.54,  0.54 au

Time for grid setup =    0.078 sec

--------------
SCF ITERATIONS
--------------
ITER       Energy         Delta-E        Max-DP      RMS-DP      [F,P]     Damp
  0    -75.9338009732   0.000000000000 0.00268927  0.00008742  0.0179807 0.7000
  1    -75.9419747241  -0.008173750908 0.00314629  0.00009881  0.0163458 0.7000
                               ***Turning on DIIS***
  2    -75.9426206052  -0.000645881084 0.00707357  0.00025846  0.0099728 0.0000
  3    -75.9343035296   0.008317075655 0.00332174  0.00013067  0.0190678 0.0000
  4    -75.9347240772  -0.000420547639 0.00150578  0.00005257  0.0038232 0.0000
                      *** Initiating the SOSCF procedure ***
                           *** Shutting down DIIS ***
                      *** Re-Reading the Fockian *** 
                      *** Removing any level shift *** 
ITER      Energy       Delta-E        Grad      Rot      Max-DP    RMS-DP
  5    -75.93475677  -0.0000326911  0.000619  0.000619  0.000512  0.000023
  6    -75.93476299  -0.0000062228  0.000520  0.001269  0.000601  0.000024
  7    -75.93476162   0.0000013747  0.000630  0.000554  0.000349  0.000013
  8    -75.93476441  -0.0000027982  0.000038  0.000068  0.000060  0.000002
  9    -75.93476444  -0.0000000259  0.000018  0.000075  0.000041  0.000001
                 **** Energy Check signals convergence ****
              ***Rediagonalizing the Fockian in SOSCF/NRSCF***

               *****************************************************
               *                     SUCCESS                       *
               *           SCF CONVERGED AFTER  10 CYCLES          *
               *****************************************************

Total Energy       :          -75.93476445 Eh           -2066.28999 eV
  Last Energy change         ...   -6.8948e-09  Tolerance :   1.0000e-08
  Last MAX-Density change    ...    1.2990e-05  Tolerance :   1.0000e-07
             **** THE GBW FILE WAS UPDATED (01_H2O.gbw) ****
             **** DENSITY FILE WAS UPDATED (01_H2O.scfp) ****
             **** ENERGY FILE WAS UPDATED (01_H2O.en.tmp) ****
             **** THE GBW FILE WAS UPDATED (01_H2O.gbw) ****
             **** DENSITY FILE WAS UPDATED (01_H2O.scfp) ****
Total SCF time: 0 days 0 hours 0 min 1 sec 


           ************************************************************
           *        Program running with 24 parallel MPI-processes    *
           *              working on a common directory               *
           ************************************************************

------------------------------------------------------------------------------
                                ORCA  MP2 
------------------------------------------------------------------------------

Freezing NCore=2 chemical core electrons

----------------------
RI-MP2 ENERGY+GRADIENT
----------------------
Dimension of the basis                    ...   92
Memory devoted to MP2                     ... 5000 MB   
Data format for buffers                   ... DOUBLE
Compression type for matrix containers    ... UNCOMPRESSED
Scaling for aa/bb pairs                   ...   4.000e-01
Scaling for ab pairs                      ...   4.700e-01
Overall scaling of the MP2 energy         ...   1.000e+00
Calculating two index integrals           ... done (    0.000 sec)
Cholesky decomposition of the V-matrix    ... done
Cholesky decomposition of V**-1           ... done (    0.003 sec)

-----------------
RI-TRANSFORMATION (AUX index driven)
-----------------

Dimension of the orbital-basis         ... 92
Dimension of the aux-basis             ... 106
Transformation of internal MOs         ...    0-   4
Transformation of internal/external MOs...    0-   4 to    5-  91
Number Format for Storage              ... Double (8 Byte)
Integral mode                          ... Direct

First Phase: integral generation and transformation of MO indices
  Aux angular momentum 0               ... done (    0.000 sec)
  Aux angular momentum 1               ... done (    0.000 sec)
  Aux angular momentum 2               ... done (    0.001 sec)
  Aux angular momentum 3               ... done (    0.001 sec)
  Aux angular momentum 4               ... done (    0.001 sec)
Closing buffer VIJ ( 0.00 GB; CompressionRatio= 0.91)
Closing buffer VIA ( 0.00 GB; CompressionRatio= 1.00)
  Phase 1 completed in     0.076 sec
Second Phase: sorting and transformation of aux index

IJ-Transformation
Memory available                       ... 4998 MB 
Max. # MO pairs treated in a batch     ... 1    
# of internal orbitals                 ... 5
# batches for internal orbitals        ... 1
Closing buffer IJV ( 0.00 GB; CompressionRatio= 0.99)
(ij|v) transformation done in     0.000 sec

IA-Transformation
Memory available                       ... 4998 MB 
Max. # MO pairs treated in a batch     ... 1    
# of internal orbitals                 ... 5
# batches for internal orbitals        ... 1
Closing buffer IAV ( 0.00 GB; CompressionRatio= 1.00)
(ia|v) transformation done in     0.001 sec

  Phase 2 completed in     0.006 sec
RI-Integral transformation completed in     0.084 sec
Opening buffers                              ... done
Frozen core precalculation                   ... done

Starting loop over batches of integrals:

Operator 0  - window                       ... (  1-  4)x(  5- 91)
Operator 0  - Memory available             ...  5000 MB
Operator 0  - Memory needed per MO         ...   0.1 MB
Operator 0  - Number of orbitals per batch ... 1
Operator 0  - Number of batches            ... 1

OPERATOR  0   PASS   0:  MOs     1 ...    1 +    2 ...    2 +    3 ...    3 +    4 ...    4
  Reading integrals       ... ok
Closing buffer GIPV ( 0.00 GB; CompressionRatio= 1.00)
Time spent in pair loops =     0.016 sec
Deleting buffer (Ka|jb)[aa] ...done

-----------------------------------------------
 RI-MP2 CORRELATION ENERGY:     -0.183818510 Eh
-----------------------------------------------


---------------------
MP2 DENSITY FORMATION
---------------------

Completing the external part of the density      ... done
Storing the unrelaxed density                    ... done

Calculating the xc-kernel                        ... done
Calculating G(D)                                 ... done
Completing the Lagrangian                        ... done
Solving the Z-vector equations                   ... 

------------------------------------------------------------------------------
                           ORCA CP-SCF CALCULATION
------------------------------------------------------------------------------

Input orbitals are from        ... 01_H2O.gbw
Input Perturbation             ... 01_H2O.pin.tmp
Wavefunction output            ... 01_H2O.pout.tmp
Perturbation mode              ... Real perturbation (singlet)
Solver                         ... POPLE
Max. number of iterations      ... 128
Convergence tolerance          ... 1.000e-08
Integral handling              ... Direct
Number of perturbations        ... 1
Number of operators            ... 1
Orbital ranges used for CP-SCF:
 Operator 0:  Orbitals   0...  4  to   5... 91
DFT calculation                         ... on
Exchange functional (SCF)               ... B88
Exchange functional (CP-SCF)            ... B88
   X-Alpha parameter    XAlpha (SCF)    ...  0.666667
   X-Alpha parameter    XAlpha (CP-SCF) ...  0.666667
   Becke's b parameter  XBeta (SCF)     ...  0.004200
   Becke's b parameter  XBeta (CP-SCF)  ...  0.004200
Correlation functional (SCF)            ... LYP
Correlation functional (CP-SCF)         ... LYP
 LDA part of GGA corr.  LDAOpt (SCF)    ... VWN-5
 LDA part of GGA corr.  LDAOpt (CP-SCF) ... VWN-5
Hybrid DFT                              ... on
   Exchange mixing (SCF)                ...  0.710
   Exchange mixing (CP-SCF)             ...  0.710
   GGA exch. scaling(SCF)               ...  0.290
   GGA exch. scaling (CP-SCF)           ...  0.290
   GGA corr. scaling (SCF)              ...  0.540
   GGA corr. scaling (CP-SCF)           ...  0.540
Variables per vector in CP-SCF ... 435
Number of vectors sought       ... 1
Recalculating density on grid  ... done
Calculating the xc-kernel      ... done
     CP-SCF ITERATION   0: 
     CP-SCF ITERATION   1:      0.004869092518
     CP-SCF ITERATION   2:      0.000064078467
     CP-SCF ITERATION   3:      0.000017560565
     CP-SCF ITERATION   4:      0.000003306483
     CP-SCF ITERATION   5:      0.000000059710
     CP-SCF ITERATION   6:      0.000000000504
done
Finalizing the relaxed density                   ... done
Transforming P to the AO basis                   ... done
Storing the relaxed density                      ... done

------------------------------------
ENERGY WEIGHTED DENSITY FINALIZATION
------------------------------------

Gathering the parts of the W-matrix              ... done
Forming the Z-density                            ... done
Transforming Z to the AO basis                   ... done
Calculating G(Z)                                 ... done
Finalizing the W-matrix                          ... done
Transforming W to the AO basis and storing       ... done
Entering the RIJONX and RIJCOSX sections
Starting the three-index derivative integrals:
Operator 0  - Memory available             ...  5000 MB
Operator 0  - Memory needed per MO         ...   0.1 MB
Operator 0  - Number of orbitals per batch ... 1
Operator 0  - Number of batches            ... 1

OPERATOR  0   PASS   0:  MOs     1 ...    1 +    2 ...    2 +    3 ...    3 +    4 ...    4

----------------------------------
MP2 DERIVATIVE INTEGRAL GENERATION
----------------------------------


Input Correlated Electron Density   ... 01_H2O.pmp2re
Input Energy Weighted Density       ... 01_H2O.wmp2.tmp
Input SCF Electron Density          ... 01_H2O.scfp

One-Electron Terms    ...
                        ... One-Electron Terms done
Prescreening matrices              ... done
Exchange-correlation gradient    ... done
Dispersion correction            ... done

-------
TIMINGS
-------

Total time                :    2.332 sec
Integral trafo            :    0.097 sec (  4.1%)
FC preparation            :    0.001 sec (  0.1%)
I/O of integrals          :    0.000 sec (  0.0%)
K(i,j) Operators          :    0.000 sec (  0.0%)
T(i,j) pair energies      :    0.000 sec (  0.0%)
V-calculation             :    0.000 sec (  0.0%)
V**(-1/2)                 :    0.003 sec (  0.1%)
Gamma(ia|P)               :    0.000 sec (  0.0%)
Gamma-Trafo               :    0.000 sec (  0.0%)
D(virtual)                :    0.000 sec (  0.0%)
D(internal)               :    0.000 sec (  0.0%)
W(virtual)                :    0.000 sec (  0.0%)
W(internal)               :    0.000 sec (  0.0%)
L(virtual)                :    0.012 sec (  0.5%)
L(internal)               :    0.000 sec (  0.0%)
G(D)                      :    0.261 sec ( 11.2%)
G(Z)                      :    0.212 sec (  9.1%)
Z-Vector Solution         :    1.247 sec ( 53.5%)
Z-Vector Solution         :    1.247 sec ( 53.5%)
3-Index Derivative 
+ Separable RIJ part      :    0.048 sec (  2.0%)
2-Index Derivative 
+ Separable RIJ part      :    0.000 sec (  0.0%)
Separable Gradient (X)    :    0.378 sec ( 16.2%)


---------------------------------------
MP2 TOTAL ENERGY:      -76.118582957 Eh
---------------------------------------

-----------------------------------
NORM OF THE MP2 GRADIENT:  0.161060
-----------------------------------


-------------------------------------------------------------------------------
                          DFT DISPERSION CORRECTION                            
                                                                               
                              DFTD3 V3.1  Rev 1                                
                          USING Becke-Johnson damping                          
-------------------------------------------------------------------------------
-------------------------   ----------------
Dispersion correction           -0.000548168
-------------------------   ----------------


-------------------------   --------------------
FINAL SINGLE POINT ENERGY       -76.119131125426
-------------------------   --------------------

------------------------------------------------------------------------------
                         ORCA GEOMETRY RELAXATION STEP
------------------------------------------------------------------------------

Reading the OPT-File                    .... done
Getting information on internals        .... done
Copying old internal coords+grads       .... done
Making the new internal coordinates     .... (new redundants).... done
Validating the new internal coordinates .... (new redundants).... done
Calculating the B-matrix                .... done
Calculating the G,G- and P matrices     .... done
Transforming gradient to internals      .... done
Projecting the internal gradient        .... done
Number of atoms                         ....   3
Number of internal coordinates          ....   3
Current Energy                          ....   -76.119131125 Eh
Current gradient norm                   ....     0.161060342 Eh/bohr
Maximum allowed component of the step   ....  0.300
Current trust radius                    ....  0.300
Updating the Hessian (BFGS)             .... done
Forming the augmented Hessian           .... done
Diagonalizing the augmented Hessian     .... done
Last element of RFO vector              ....  0.626410096
Lowest eigenvalues of augmented Hessian:
 -0.157287944  0.022731116  0.097976671
Length of the computed step             ....  1.244382366
Warning: the length of the step is outside the trust region - taking restricted step instead
The input lambda is                     ....    -0.157288
   iter:   1  x=   -0.205060  g=   30.529883 f(x)=     1.458487
   iter:   2  x=   -0.270319  g=    9.589813 f(x)=     0.625822
   iter:   3  x=   -0.349782  g=    3.229840 f(x)=     0.256653
   iter:   4  x=   -0.425204  g=    1.255215 f(x)=     0.094671
   iter:   5  x=   -0.467883  g=    0.632878 f(x)=     0.027011
   iter:   6  x=   -0.476763  g=    0.455990 f(x)=     0.004049
   iter:   7  x=   -0.477061  g=    0.427755 f(x)=     0.000127
   iter:   8  x=   -0.477061  g=    0.426850 f(x)=     0.000000
   iter:   9  x=   -0.477061  g=    0.426849 f(x)=     0.000000
   iter:  10  x=   -0.477061  g=    0.426849 f(x)=     0.000000
The output lambda is                    ....    -0.477061 (10 iterations)
The final length of the internal step   ....  0.300000000
Converting the step to cartesian space:
 Initial RMS(Int)=    0.1732050808
Transforming coordinates:
 Iter   0:  RMS(Cart)=    0.0992270526 RMS(Int)=    0.1728410911
 Iter   1:  RMS(Cart)=    0.0015829795 RMS(Int)=    0.0019240237
 Iter   2:  RMS(Cart)=    0.0000991074 RMS(Int)=    0.0001467784
 Iter   3:  RMS(Cart)=    0.0000061771 RMS(Int)=    0.0000092136
 Iter   4:  RMS(Cart)=    0.0000003843 RMS(Int)=    0.0000005743
 Iter   5:  RMS(Cart)=    0.0000000239 RMS(Int)=    0.0000000357
done
Storing new coordinates                 .... done

                                .--------------------.
          ----------------------|Geometry convergence|-------------------------
          Item                value                   Tolerance       Converged
          ---------------------------------------------------------------------
          Energy change      -0.0355457776            0.0000050000      NO
          RMS gradient        0.0731101662            0.0001000000      NO
          MAX gradient        0.0882786502            0.0003000000      NO
          RMS step            0.1732050808            0.0020000000      NO
          MAX step            0.2100625203            0.0040000000      NO
          ........................................................
          Max(Bonds)      0.1112      Max(Angles)    2.40
          Max(Dihed)        0.00      Max(Improp)    0.00
[...]
LOEWDIN REDUCED ORBITAL CHARGES
-------------------------------
  0 O s       :     3.008483  s :     3.008483
      pz      :     1.304481  p :     3.857536
      px      :     1.409879
      py      :     1.143177
      dz2     :     0.003205  d :     0.082826
      dxz     :     0.003368
      dyz     :     0.052711
      dx2y2   :     0.020728
      dxy     :     0.002814
      f0      :     0.001969  f :     0.017204
      f+1     :     0.000284
      f-1     :     0.004873
      f+2     :     0.007014
      f-2     :     0.000296
      f+3     :     0.000435
      f-3     :     0.002333
  1 H s       :     0.586383  s :     0.586383
      pz      :     0.205266  p :     0.572258
      px      :     0.175801
      py      :     0.191190
      dz2     :     0.079101  d :     0.358334
      dxz     :     0.043406
      dyz     :     0.093979
      dx2y2   :     0.068980
      dxy     :     0.072869
  2 H s       :     0.586383  s :     0.586383
      pz      :     0.205267  p :     0.572259
      px      :     0.175802
      py      :     0.191191
      dz2     :     0.079101  d :     0.358334
      dxz     :     0.043406
      dyz     :     0.093979
      dx2y2   :     0.068980
      dxy     :     0.072869


                      *****************************
                      * MAYER POPULATION ANALYSIS *
                      *****************************

  NA   - Mulliken gross atomic population
  ZA   - Total nuclear charge
  QA   - Mulliken gross atomic charge
  VA   - Mayer's total valence
  BVA  - Mayer's bonded valence
  FA   - Mayer's free valence

  ATOM       NA         ZA         QA         VA         BVA        FA
  0 O      8.4024     8.0000    -0.4024     2.1810     1.9730     0.2080
  1 H      0.7988     1.0000     0.2012     1.0579     1.0187     0.0392
  2 H      0.7988     1.0000     0.2012     1.0579     1.0187     0.0392

  Mayer bond orders larger than 0.100000
B(  0-O ,  1-H ) :   0.9865 B(  0-O ,  2-H ) :   0.9865 


-------
TIMINGS
-------

Total time                :    2.176 sec
Integral trafo            :    0.123 sec (  5.7%)
FC preparation            :    0.001 sec (  0.1%)
I/O of integrals          :    0.000 sec (  0.0%)
K(i,j) Operators          :    0.000 sec (  0.0%)
T(i,j) pair energies      :    0.000 sec (  0.0%)
V-calculation             :    0.001 sec (  0.0%)
V**(-1/2)                 :    0.004 sec (  0.2%)
Gamma(ia|P)               :    0.000 sec (  0.0%)
Gamma-Trafo               :    0.000 sec (  0.0%)
D(virtual)                :    0.000 sec (  0.0%)
D(internal)               :    0.000 sec (  0.0%)
W(virtual)                :    0.000 sec (  0.0%)
W(internal)               :    0.000 sec (  0.0%)
L(virtual)                :    0.012 sec (  0.5%)
L(internal)               :    0.000 sec (  0.0%)
G(D)                      :    0.235 sec ( 10.8%)
G(Z)                      :    0.206 sec (  9.4%)
Z-Vector Solution         :    0.970 sec ( 44.6%)
Z-Vector Solution         :    0.970 sec ( 44.6%)
3-Index Derivative 
+ Separable RIJ part      :    0.048 sec (  2.2%)
2-Index Derivative 
+ Separable RIJ part      :    0.000 sec (  0.0%)
Separable Gradient (X)    :    0.401 sec ( 18.4%)


---------------------------------------
MP2 TOTAL ENERGY:      -76.390308196 Eh
---------------------------------------

-----------------------------------
NORM OF THE MP2 GRADIENT:  0.000017
-----------------------------------


-------------------------------------------------------------------------------
                          DFT DISPERSION CORRECTION                            
                                                                               
                              DFTD3 V3.1  Rev 1                                
                          USING Becke-Johnson damping                          
-------------------------------------------------------------------------------
The DSD-BLYP/2013 functional is recognized
Active option DFTDOPT                   ...         4   

molecular C6(AA) [au] = 44.531335 


            DFT-D V3
 parameters
 s6 scaling factor         :     0.5700 
 a1 scaling factor         :     0.0000 
 s8 scaling factor         :     0.0000 
 a2 scaling factor         :     5.4000 
 ad hoc parameters k1-k3   :    16.0000     1.3333    -4.0000 

 Edisp/kcal,au: -0.200264827738  -0.000319142283 
 E6   /kcal   :  -0.200264828 
 E8   /kcal   :  -0.000000000 
 % E8         :   0.000000000 

-------------------------   ----------------
Dispersion correction           -0.000319142
-------------------------   ----------------


-------------------------   --------------------
FINAL SINGLE POINT ENERGY       -76.390627338058
-------------------------   --------------------

                                *** OPTIMIZATION RUN DONE ***

                            ***************************************
                            *     ORCA property calculations      *
                            ***************************************

                                    ---------------------
                                    Active property flags
                                    ---------------------
   (+) Dipole Moment


------------------------------------------------------------------------------
                       ORCA ELECTRIC PROPERTIES CALCULATION
------------------------------------------------------------------------------

Dipole Moment Calculation                       ... on
Quadrupole Moment Calculation                   ... off
Polarizability Calculation                      ... off
GBWName                                         ... 01_H2O.gbw
Electron density file                           ... 01_H2O.scfp
The origin for moment calculation is the CENTER OF MASS  = ( 0.000000,  0.000001 -0.550791)

-------------
DIPOLE MOMENT
-------------
                                X             Y             Z
Electronic contribution:     -0.00000       0.00000       0.21049
Nuclear contribution   :      0.00000      -0.00000      -0.97501
                        -----------------------------------------
Total Dipole Moment    :     -0.00000       0.00000      -0.76451
                        -----------------------------------------
Magnitude (a.u.)       :      0.76451
Magnitude (Debye)      :      1.94324



--------------------
Rotational spectrum 
--------------------
 
Rotational constants in cm-1:    27.448233    14.500050     9.487891 
Rotational constants in MHz : 822877.326861 434700.571441 284439.830483 

 Dipole components along the rotational axes: 
x,y,z [a.u.] :     0.000001    -0.764514    -0.000000 
x,y,z [Debye]:     0.000002    -1.943241    -0.000000 

 

                         *** MP2 UNRELAXED DENSITY ***

------------------------------------------------------------------------------
                       ORCA ELECTRIC PROPERTIES CALCULATION
------------------------------------------------------------------------------

Dipole Moment Calculation                       ... on
Quadrupole Moment Calculation                   ... off
Polarizability Calculation                      ... off
GBWName                                         ... 01_H2O.gbw
Electron density file                           ... 01_H2O.pmp2ur
The origin for moment calculation is the CENTER OF MASS  = ( 0.000000,  0.000001 -0.550791)

-------------
DIPOLE MOMENT
-------------
                                X             Y             Z
Electronic contribution:      0.00000       0.00000       0.22123
Nuclear contribution   :      0.00000      -0.00000      -0.97501
                        -----------------------------------------
Total Dipole Moment    :      0.00000       0.00000      -0.75378
                        -----------------------------------------
Magnitude (a.u.)       :      0.75378
Magnitude (Debye)      :      1.91594



--------------------
Rotational spectrum 
--------------------
 
Rotational constants in cm-1:    27.448233    14.500050     9.487891 
Rotational constants in MHz : 822877.326861 434700.571441 284439.830483 

 Dipole components along the rotational axes: 
x,y,z [a.u.] :     0.000001    -0.753775     0.000000 
x,y,z [Debye]:     0.000002    -1.915945     0.000000 

 

                           *** MP2 RELAXED DENSITY ***

------------------------------------------------------------------------------
                       ORCA ELECTRIC PROPERTIES CALCULATION
------------------------------------------------------------------------------

Dipole Moment Calculation                       ... on
Quadrupole Moment Calculation                   ... off
Polarizability Calculation                      ... off
GBWName                                         ... 01_H2O.gbw
Electron density file                           ... 01_H2O.pmp2re
The origin for moment calculation is the CENTER OF MASS  = ( 0.000000,  0.000001 -0.550791)

-------------
DIPOLE MOMENT
-------------
                                X             Y             Z
Electronic contribution:      0.00000       0.00000       0.24355
Nuclear contribution   :      0.00000      -0.00000      -0.97501
                        -----------------------------------------
Total Dipole Moment    :      0.00000       0.00000      -0.73146
                        -----------------------------------------
Magnitude (a.u.)       :      0.73146
Magnitude (Debye)      :      1.85923



--------------------
Rotational spectrum 
--------------------
 
Rotational constants in cm-1:    27.448233    14.500050     9.487891 
Rotational constants in MHz : 822877.326861 434700.571441 284439.830483 

 Dipole components along the rotational axes: 
x,y,z [a.u.] :     0.000001    -0.731462     0.000000 
x,y,z [Debye]:     0.000002    -1.859230     0.000000 

 

----------------------------------------------------------------------------
                           ORCA NUMERICAL FREQUENCIES
                              (24-process run)
----------------------------------------------------------------------------

Number of atoms                ... 3
Central differences            ... used
Number of displacements        ... 18
Numerical increment            ... 5.000e-03 bohr
IR-spectrum generation         ... on
Raman-spectrum generation      ... off
Surface Crossing Hessian       ... off

 WARNING: There are more processes than displacements to do
  ====> : Reducing number of processes to   9

The output will be reduced. Please look at the following files:
SCF program output             ... >01_H2O.lastscf
Integral program output        ... >01_H2O.lastint
Gradient program output        ... >01_H2O.lastgrad
Dipole moment program output   ... >01_H2O.lastmom
AutoCI program output          ... >01_H2O.lastautoci


         <<< Energy and Gradient at the input geometry >>>

        <<< Energy and Gradient at displaced geometries >>>
             <<<Displacing   1/coordinate 3 (+)>>>
             <<<Displacing   3/coordinate 2 (+)>>>
             <<<Displacing   2/coordinate 3 (+)>>>
             <<<Displacing   1/coordinate 1 (+)>>>
             <<<Displacing   2/coordinate 2 (+)>>>
             <<<Displacing   3/coordinate 3 (+)>>>
             <<<Displacing   1/coordinate 2 (+)>>>
             <<<Displacing   3/coordinate 1 (+)>>>
             <<<Displacing   2/coordinate 1 (+)>>>
             <<<Displacing   1/coordinate 2 (-)>>>
             <<<Displacing   3/coordinate 2 (-)>>>
             <<<Displacing   1/coordinate 1 (-)>>>
             <<<Displacing   2/coordinate 1 (-)>>>
             <<<Displacing   2/coordinate 3 (-)>>>
             <<<Displacing   2/coordinate 2 (-)>>>
             <<<Displacing   3/coordinate 3 (-)>>>
             <<<Displacing   1/coordinate 3 (-)>>>
             <<<Displacing   3/coordinate 1 (-)>>>

-----------------------
VIBRATIONAL FREQUENCIES
-----------------------

Scaling factor for frequencies =  1.000000000 (already applied!)

   0:         0.00 cm**-1
   1:         0.00 cm**-1
   2:         0.00 cm**-1
   3:         0.00 cm**-1
   4:         0.00 cm**-1
   5:         0.00 cm**-1
   6:      1640.83 cm**-1
   7:      3841.07 cm**-1
   8:      3955.52 cm**-1


------------
NORMAL MODES
------------

These modes are the cartesian displacements weighted by the diagonal matrix
M(i,i)=1/sqrt(m[i]) where m[i] is the mass of the displaced atom
Thus, these vectors are normalized but *not* orthogonal

                  0          1          2          3          4          5    
      0       0.000000   0.000000   0.000000   0.000000   0.000000   0.000000
      1       0.000000   0.000000   0.000000   0.000000   0.000000   0.000000
      2       0.000000   0.000000   0.000000   0.000000   0.000000   0.000000
      3       0.000000   0.000000   0.000000   0.000000   0.000000   0.000000
      4       0.000000   0.000000   0.000000   0.000000   0.000000   0.000000
      5       0.000000   0.000000   0.000000   0.000000   0.000000   0.000000
      6       0.000000   0.000000   0.000000   0.000000   0.000000   0.000000
      7       0.000000   0.000000   0.000000   0.000000   0.000000   0.000000
      8       0.000000   0.000000   0.000000   0.000000   0.000000   0.000000
                   6          7          8    
      0       0.000000   0.000000   0.000000
      1       0.000000  -0.000004  -0.070380
      2       0.070896  -0.049607   0.000003
      3       0.000000   0.000000   0.000000
      4       0.425365   0.586367   0.558496
      5      -0.562629   0.393706   0.430746
      6       0.000000   0.000000   0.000000
      7      -0.425367  -0.586298   0.558570
      8      -0.562628   0.393654  -0.430798


-----------
IR SPECTRUM  
-----------

 Mode    freq (cm**-1)   T**2         TX         TY         TZ
-------------------------------------------------------------------
   6:      1640.83   75.502740  (  0.000000  -0.000010  -8.689231)
   7:      3841.07    5.952477  ( -0.000000   0.000532   2.439770)
   8:      3955.52   72.993389  ( -0.000000   8.543617  -0.000163)

The first frequency considered to be a vibration is 6
The total number of vibrations considered is 3


--------------------------
THERMOCHEMISTRY AT 298.15K
--------------------------

Temperature         ... 298.15 K
Pressure            ... 1.00 atm
Total Mass          ... 18.02 AMU

Throughout the following assumptions are being made:
  (1) The electronic state is orbitally nondegenerate
  (2) There are no thermally accessible electronically excited states
  (3) Hindered rotations indicated by low frequency modes are not
      treated as such but are treated as vibrations and this may
      cause some error
  (4) All equations used are the standard statistical mechanics
      equations for an ideal gas
  (5) All vibrations are strictly harmonic

freq.    1640.83  E(vib)   ...       0.00 
freq.    3841.07  E(vib)   ...       0.00 
freq.    3955.52  E(vib)   ...       0.00 

------------
INNER ENERGY
------------

The inner energy is: U= E(el) + E(ZPE) + E(vib) + E(rot) + E(trans)
    E(el)   - is the total energy from the electronic structure calculation
              = E(kin-el) + E(nuc-el) + E(el-el) + E(nuc-nuc)
    E(ZPE)  - the the zero temperature vibrational energy from the frequency calculation
    E(vib)  - the the finite temperature correction to E(ZPE) due to population
              of excited vibrational states
    E(rot)  - is the rotational thermal energy
    E(trans)- is the translational thermal energy

Summary of contributions to the inner energy U:
Electronic energy                ...    -76.39062734 Eh
Zero point energy                ...      0.02150002 Eh      13.49 kcal/mol
Thermal vibrational correction   ...      0.00000272 Eh       0.00 kcal/mol
Thermal rotational correction    ...      0.00141627 Eh       0.89 kcal/mol
Thermal translational correction ...      0.00141627 Eh       0.89 kcal/mol
-----------------------------------------------------------------------
Total thermal energy                    -76.36629205 Eh


Summary of corrections to the electronic energy:
(perhaps to be used in another calculation)
Total thermal correction                  0.00283527 Eh       1.78 kcal/mol
Non-thermal (ZPE) correction              0.02150002 Eh      13.49 kcal/mol
-----------------------------------------------------------------------
Total correction                          0.02433529 Eh      15.27 kcal/mol


--------
ENTHALPY
--------

The enthalpy is H = U + kB*T
                kB is Boltzmann's constant
Total free energy                 ...    -76.36629205 Eh 
Thermal Enthalpy correction       ...      0.00094421 Eh       0.59 kcal/mol
-----------------------------------------------------------------------
Total Enthalpy                    ...    -76.36534784 Eh


Note: Rotational entropy computed according to Herzberg 
Infrared and Raman Spectra, Chapter V,1, Van Nostrand Reinhold, 1945 
Point Group:  Cs, Symmetry Number:   1  
Rotational constants in cm-1:    27.448233    14.500050     9.487891 

Vibrational entropy computed according to the QRRHO of S. Grimme
Chem.Eur.J. 2012 18 9955


-------
ENTROPY
-------

The entropy contributions are T*S = T*(S(el)+S(vib)+S(rot)+S(trans))
     S(el)   - electronic entropy
     S(vib)  - vibrational entropy
     S(rot)  - rotational entropy
     S(trans)- translational entropy
The entropies will be listed as mutliplied by the temperature to get
units of energy

Electronic entropy                ...      0.00000000 Eh      0.00 kcal/mol
Vibrational entropy               ...      0.00000307 Eh      0.00 kcal/mol
Rotational entropy                ...      0.00562245 Eh      3.53 kcal/mol
Translational entropy             ...      0.01644380 Eh     10.32 kcal/mol
-----------------------------------------------------------------------
Final entropy term                ...      0.02206932 Eh     13.85 kcal/mol

In case the symmetry of your molecule has not been determined correctly
or in case you have a reason to use a different symmetry number we print 
out the resulting rotational entropy values for sn=1,12 :
 --------------------------------------------------------
|  sn= 1 | S(rot)=       0.00562245 Eh      3.53 kcal/mol|
|  sn= 2 | S(rot)=       0.00496799 Eh      3.12 kcal/mol|
|  sn= 3 | S(rot)=       0.00458516 Eh      2.88 kcal/mol|
|  sn= 4 | S(rot)=       0.00431354 Eh      2.71 kcal/mol|
|  sn= 5 | S(rot)=       0.00410285 Eh      2.57 kcal/mol|
|  sn= 6 | S(rot)=       0.00393071 Eh      2.47 kcal/mol|
|  sn= 7 | S(rot)=       0.00378516 Eh      2.38 kcal/mol|
|  sn= 8 | S(rot)=       0.00365908 Eh      2.30 kcal/mol|
|  sn= 9 | S(rot)=       0.00354787 Eh      2.23 kcal/mol|
|  sn=10 | S(rot)=       0.00344839 Eh      2.16 kcal/mol|
|  sn=11 | S(rot)=       0.00335840 Eh      2.11 kcal/mol|
|  sn=12 | S(rot)=       0.00327625 Eh      2.06 kcal/mol|
 --------------------------------------------------------


-------------------
GIBBS FREE ENERGY
-------------------

The Gibbs free energy is G = H - T*S

Total enthalpy                    ...    -76.36534784 Eh 
Total entropy correction          ...     -0.02206932 Eh    -13.85 kcal/mol
-----------------------------------------------------------------------
Final Gibbs free energy         ...    -76.38741716 Eh

For completeness - the Gibbs free energy minus the electronic energy
G-E(el)                           ...      0.00321018 Eh      2.01 kcal/mol


Total Time for Numerical Frequencies  :        22.906 sec

Timings for individual modules:

Sum of individual times         ...       75.285 sec (=   1.255 min)
GTO integral calculation        ...        8.645 sec (=   0.144 min)  11.5 %
SCF iterations                  ...       24.187 sec (=   0.403 min)  32.1 %
MP2 module                      ...       41.828 sec (=   0.697 min)  55.6 %
Geometry relaxation             ...        0.625 sec (=   0.010 min)   0.8 %
                             ****ORCA TERMINATED NORMALLY****
TOTAL RUN TIME: 0 days 0 hours 1 minutes 36 seconds 26 msec
