
                                 *****************
                                 * O   R   C   A *
                                 *****************

           --- An Ab Initio, DFT and Semiempirical electronic structure package ---

                  #######################################################
                  #                        -***-                        #
                  #          Department of theory and spectroscopy      #
                  #               Directorship: Frank Neese             #
                  #        Max Planck Institute fuer Kohlenforschung    #
                  #                Kaiser Wilhelm Platz 1               #
                  #                 D-45470 Muelheim/Ruhr               #
                  #                      Germany                        #
                  #                                                     #
                  #                  All rights reserved                #
                  #                        -***-                        #
                  #######################################################


                         Program Version 4.2.0 -  RELEASE  -


 With contributions from (in alphabetic order):
   Daniel Aravena         : Magnetic Suceptibility
   Michael Atanasov       : Ab Initio Ligand Field Theory (pilot matlab implementation)
   Alexander A. Auer      : GIAO ZORA, VPT2
   Ute Becker             : Parallelization
   Giovanni Bistoni       : ED, misc. LED, open-shell LED, HFLED
   Martin Brehm           : Molecular dynamics
   Dmytro Bykov           : SCF Hessian
   Vijay G. Chilkuri      : MRCI spin determinant printing, contributions to CSF-ICE
   Dipayan Datta          : RHF DLPNO-CCSD density
   Achintya Kumar Dutta   : EOM-CC, STEOM-CC
   Dmitry Ganyushin       : Spin-Orbit,Spin-Spin,Magnetic field MRCI
   Miquel Garcia          : C-PCM Hessian, Gaussian charge scheme
   Yang Guo               : DLPNO-NEVPT2, CIM, IAO-localization
   Andreas Hansen         : Spin unrestricted coupled pair/coupled cluster methods
   Benjamin Helmich-Paris : CASSCF linear response (MC-RPA)
   Lee Huntington         : MR-EOM, pCC
   Robert Izsak           : Overlap fitted RIJCOSX, COSX-SCS-MP3, EOM
   Christian Kollmar      : KDIIS, OOCD, Brueckner-CCSD(T), CCSD density
   Simone Kossmann        : Meta GGA functionals, TD-DFT gradient, OOMP2, MP2 Hessian
   Martin Krupicka        : AUTO-CI
   Lucas Lang             : DCDCAS
   Dagmar Lenk            : GEPOL surface, SMD
   Dimitrios Liakos       : Extrapolation schemes; Compound Job, initial MDCI parallelization
   Dimitrios Manganas     : Further ROCIS development; embedding schemes
   Dimitrios Pantazis     : SARC Basis sets
   Taras Petrenko         : DFT Hessian,TD-DFT gradient, ASA, ECA, R-Raman, ABS, FL, XAS/XES, NRVS
   Peter Pinski           : DLPNO-MP2, DLPNO-MP2 Gradient
   Christoph Reimann      : Effective Core Potentials
   Marius Retegan         : Local ZFS, SOC
   Christoph Riplinger    : Optimizer, TS searches, QM/MM, DLPNO-CCSD(T), (RO)-DLPNO pert. Triples
   Tobias Risthaus        : Range-separated hybrids, TD-DFT gradient, RPA, STAB
   Michael Roemelt        : Original ROCIS implementation
   Masaaki Saitow         : Open-shell DLPNO-CCSD energy and density
   Barbara Sandhoefer     : DKH picture change effects
   Avijit Sen             : IP-ROCIS
   Kantharuban Sivalingam : CASSCF convergence, NEVPT2, FIC-MRCI
   Bernardo de Souza      : ESD, SOC TD-DFT
   Georgi Stoychev        : AutoAux, RI-MP2 NMR
   Willem Van den Heuvel  : Paramagnetic NMR
   Boris Wezisla          : Elementary symmetry handling
   Frank Wennmohs         : Technical directorship


 We gratefully acknowledge several colleagues who have allowed us to
 interface, adapt or use parts of their codes:
   Stefan Grimme, W. Hujo, H. Kruse,             : VdW corrections, initial TS optimization,
                  C. Bannwarth                     DFT functionals, gCP, sTDA/sTD-DF
   Ed Valeev, F. Pavosevic, A. Kumar             : LibInt (2-el integral package), F12 methods
   Garnet Chan, S. Sharma, J. Yang, R. Olivares  : DMRG
   Ulf Ekstrom                                   : XCFun DFT Library
   Mihaly Kallay                                 : mrcc  (arbitrary order and MRCC methods)
   Andreas Klamt, Michael Diedenhofen            : otool_cosmo (COSMO solvation model)
   Jiri Pittner, Ondrej Demel                    : Mk-CCSD
   Frank Weinhold                                : gennbo (NPA and NBO analysis)
   Christopher J. Cramer and Donald G. Truhlar   : smd solvation model
   Lars Goerigk                                  : TD-DFT with DH, B97 family of functionals
   V. Asgeirsson, H. Jonsson                     : NEB implementation
   FAccTs GmbH                                   : IRC, NEB, NEB-TS, Multilevel, MM, QM/MM, CI optimization
   S Lehtola, MJT Oliveira, MAL Marques          : LibXC Library


 Your calculation uses the libint2 library for the computation of 2-el integrals
 For citations please refer to: http://libint.valeyev.net

 Your ORCA version has been built with support for libXC version: 4.2.3
 For citations please refer to: https://tddft.org/programs/libxc/

 This ORCA versions uses:
   CBLAS   interface :  Fast vector & matrix operations
   LAPACKE interface :  Fast linear algebra routines
   SCALAPACK package :  Parallel linear algebra routines


Your calculation utilizes the atom-pairwise dispersion correction
with the Becke-Johnson damping scheme (D3BJ)
Cite in your paper:
S.Grimme, S.Ehrlich, L.Goerigk, J Comput Chem, (2011), 32, 1456–1465 
S.Grimme, J.Antony, S.Ehrlich and H.Krieg, J.Chem.Phys., 132, (2010), 154104 
   

----- Orbital basis set information -----
Your calculation utilizes the basis: aug-cc-pV(T+d)Z 
             Al - Ar: T.H. Dunning, Jr., K. A. Peterson and A. K. Wilson, J. Chem. Phys.
                      114, 9244 (2001)

----- AuxC basis set information -----
Your calculation utilizes the auxiliary basis: def2-TZVP/C
  H-La, Hf-Rn : A. Hellweg, C. Hattig, S. Hofener and W. Klopper, Theor. Chem. Acc. 117, 587 (2007).
        Ce-Lu : J. Chmela and M. E. Harding, Mol. Phys. (2018).

----- AuxJK basis set information -----
Your calculation utilizes the auxiliary basis: def2/JK
   H-Ba, Hf-Rn: F. Weigend, J. Comput. Chem. 29, 167 (2008).

================================================================================
                                        WARNINGS
                       Please study these warnings very carefully!
================================================================================


WARNING: The frozen-core approximation for MP2-gradient calculations is turned on by default.

WARNING: Geometry Optimization
  ===> : Switching off AutoStart
         For restart on a previous wavefunction, please use MOREAD

WARNING: There are different parametrizations of Gershom Martin's DSD-DFs
         for use with and without D3(BJ)!
         You are using the D3(BJ) parametrized version,
         consistent with the 2013 article (S. Kozuch and J. M. L. Martin, JCC 2013, 34, 2327)

WARNING: The frozen-core approximation is turned on by default for 
         the MP2 part of double-hybrid DFT.

INFO   : the flag for use of LIBINT has been found!

================================================================================
                                       INPUT FILE
================================================================================
NAME = 02_H2O_2.in
|  1> #
|  2> # 02_H2O_2 dsd-blyp/aug-cc-pvt(+d)z
|  3> #
|  4> ! rijk ri-dsd-blyp/2013 d3bj aug-cc-pvt(+d)z def2/jk def2-tzvp/c grid4 nofinalgrid opt xyzfile numfreq
|  5> 
|  6> *xyz 0 1
|  7> O	0.12629641	2.81863838	0
|  8> H	-1.55012056	3.50228598	0
|  9> H	-0.11213325	1.01044862	0
| 10> O	-0.11743248	-2.68035303	0
| 11> H	0.7607884	-3.35371171	-1.4365769
| 12> H	0.7607884	-3.35371171	1.4365769
| 13> *
| 14> 
| 15> %maxcore 5000
| 16> 
| 17> %pal
| 18> nprocs 24
| 19> end
| 20> 
| 21> %geom
| 22> maxiter 300
| 23> coordsys cartesian
| 24> end
| 25> 
| 26> 
| 27>                          ****END OF INPUT****
================================================================================

                       *****************************
                       * Geometry Optimization Run *
                       *****************************

Geometry optimization settings:
Update method            Update   .... BFGS
Choice of coordinates    CoordSys .... Cartesian
Initial Hessian          InHess   .... Almoef's Model

Convergence Tolerances:
Energy Change            TolE     ....  5.0000e-06 Eh
Max. Gradient            TolMAXG  ....  3.0000e-04 Eh/bohr
RMS Gradient             TolRMSG  ....  1.0000e-04 Eh/bohr
Max. Displacement        TolMAXD  ....  4.0000e-03 bohr
RMS Displacement         TolRMSD  ....  2.0000e-03 bohr
Strict Convergence                ....  False
------------------------------------------------------------------------------
                        ORCA OPTIMIZATION COORDINATE SETUP
------------------------------------------------------------------------------

The optimization will be done in cartesian displacement coordinates
Initial hessian                         ....Making redundant internal coordinates             ... done
Evaluating the coordinates                        ... done
Calculating the B-matrix                .... done
Evaluating the initial hessian                    ... done
done
Number of atoms                         .... 6
Number of degrees of freedom            .... 18

         *************************************************************
         *                GEOMETRY OPTIMIZATION CYCLE   1            *
         *************************************************************
---------------------------------
CARTESIAN COORDINATES (ANGSTROEM)
---------------------------------
  O      0.126296    2.818638    0.000000
  H     -1.550121    3.502286    0.000000
  H     -0.112133    1.010449    0.000000
  O     -0.117432   -2.680353    0.000000
  H      0.760788   -3.353712   -1.436577
  H      0.760788   -3.353712    1.436577

----------------------------
CARTESIAN COORDINATES (A.U.)
----------------------------
  NO LB      ZA    FRAG     MASS         X           Y           Z
   0 O     8.0000    0    15.999    0.238666    5.326455    0.000000
   1 H     1.0000    0     1.008   -2.929303    6.618361    0.000000
   2 H     1.0000    0     1.008   -0.211901    1.909471    0.000000
   3 O     8.0000    0    15.999   -0.221915   -5.065133    0.000000
   4 H     1.0000    0     1.008    1.437682   -6.337597   -2.714737
   5 H     1.0000    0     1.008    1.437682   -6.337597    2.714737

--------------------------------
INTERNAL COORDINATES (ANGSTROEM)
--------------------------------
 O      0   0   0     0.000000000000     0.00000000     0.00000000
 H      1   0   0     1.810455163292     0.00000000     0.00000000
 H      1   2   0     1.823841799865   104.67403357     0.00000000
 O      3   1   2     3.690805454299   172.57052396   180.00000000
 H      4   3   1     1.813404812945   111.75429995   301.46668203
 H      4   3   1     1.813404812945   111.75429995    58.53331797

---------------------------
INTERNAL COORDINATES (A.U.)
---------------------------
 O      0   0   0     0.000000000000     0.00000000     0.00000000
 H      1   0   0     3.421264436365     0.00000000     0.00000000
 H      1   2   0     3.446561513344   104.67403357     0.00000000
 O      3   1   2     6.974611522207   172.57052396   180.00000000
 H      4   3   1     3.426838466401   111.75429995   301.46668203
 H      4   3   1     3.426838466401   111.75429995    58.53331797

---------------------
BASIS SET INFORMATION
---------------------
There are 2 groups of distinct atoms

 Group   1 Type O   : 19s6p3d2f contracted to 5s4p3d2f pattern {88111/3111/111/11}
 Group   2 Type H   : 6s3p2d contracted to 4s3p2d pattern {3111/111/11}

Atom   0O    basis set group =>   1
Atom   1H    basis set group =>   2
Atom   2H    basis set group =>   2
Atom   3O    basis set group =>   1
Atom   4H    basis set group =>   2
Atom   5H    basis set group =>   2
---------------------------------
AUXILIARY/C BASIS SET INFORMATION
---------------------------------
There are 2 groups of distinct atoms

 Group   1 Type O   : 8s6p5d3f1g contracted to 8s6p4d3f1g pattern {11111111/111111/2111/111/1}
 Group   2 Type H   : 4s3p2d contracted to 4s2p1d pattern {1111/21/2}

Atom   0O    basis set group =>   1
Atom   1H    basis set group =>   2
Atom   2H    basis set group =>   2
Atom   3O    basis set group =>   1
Atom   4H    basis set group =>   2
Atom   5H    basis set group =>   2
----------------------------------
AUXILIARY/JK BASIS SET INFORMATION
----------------------------------
There are 2 groups of distinct atoms

 Group   1 Type O   : 14s10p6d2f1g contracted to 10s8p4d2f1g pattern {5111111111/31111111/3111/11/1}
 Group   2 Type H   : 4s2p2d contracted to 2s2p2d pattern {31/11/11}

Atom   0O    basis set group =>   1
Atom   1H    basis set group =>   2
Atom   2H    basis set group =>   2
Atom   3O    basis set group =>   1
Atom   4H    basis set group =>   2
Atom   5H    basis set group =>   2


           ************************************************************
           *        Program running with 24 parallel MPI-processes    *
           *              working on a common directory               *
           ************************************************************
------------------------------------------------------------------------------
                           ORCA GTO INTEGRAL CALCULATION
                           -- RI-GTO INTEGRALS CHOSEN --
------------------------------------------------------------------------------

                         BASIS SET STATISTICS AND STARTUP INFO

Gaussian basis set:
 # of primitive gaussian shells          ...  104
 # of primitive gaussian functions       ...  232
 # of contracted shells                  ...   64
 # of contracted basis functions         ...  184
 Highest angular momentum                ...    3
 Maximum contraction depth               ...    8
Auxiliary gaussian basis set:
 # of primitive gaussian shells          ...   98
 # of primitive gaussian functions       ...  274
 # of contracted shells                  ...   74
 # of contracted aux-basis functions     ...  226
 Highest angular momentum                ...    4
 Maximum contraction depth               ...    5
Ratio of auxiliary to basis functions    ...  1.23
Integral package used                  ... LIBINT
 One Electron integrals                  ... done
 Ordering auxiliary basis shells         ... done
 Integral threshhold             Thresh  ...  2.500e-11
 Primitive cut-off               TCut    ...  2.500e-12
 Pre-screening matrix                    ... done
 Shell pair data                         ... 
 Ordering of the shell pairs             ... done (   0.000 sec) 1773 of 2080 pairs
 Determination of significant pairs      ... done (   0.000 sec)
 Creation of shell pair data             ... done (   0.000 sec)
 Storage of shell pair data              ... done (   0.016 sec)
 Shell pair data done in (   0.017 sec)
 Computing two index integrals           ... done
 Cholesky decomposition of the V-matrix  ... done


Timings:
 Total evaluation time                   ...   0.157 sec (  0.003 min)
 One electron matrix time                ...   0.009 sec (  0.000 min) =  5.9%
 Schwartz matrix evaluation time         ...   0.101 sec (  0.002 min) = 64.0%
 Two index repulsion integral time       ...   0.001 sec (  0.000 min) =  0.6%
 Cholesky decomposition of V             ...   0.001 sec (  0.000 min) =  0.8%
 Three index repulsion integral time     ...   0.000 sec (  0.000 min) =  0.0%



           ************************************************************
           *        Program running with 24 parallel MPI-processes    *
           *              working on a common directory               *
           ************************************************************
-------------------------------------------------------------------------------
                                 ORCA SCF
-------------------------------------------------------------------------------

------------
SCF SETTINGS
------------
Hamiltonian:
 Density Functional     Method          .... DFT(GTOs)
 Exchange Functional    Exchange        .... B88
   X-Alpha parameter    XAlpha          ....  0.666667
   Becke's b parameter  XBeta           ....  0.004200
 Correlation Functional Correlation     .... LYP
 LDA part of GGA corr.  LDAOpt          .... VWN-5
 Gradients option       PostSCFGGA      .... off
 Hybrid DFT is turned on
   Fraction HF Exchange ScalHFX         ....  0.710000
   Scaling of DF-GGA-X  ScalDFX         ....  0.290000
   Scaling of DF-GGA-C  ScalDFC         ....  0.540000
   Scaling of DF-LDA-C  ScalLDAC        ....  0.540000
   Perturbative correction              ....  1.000000
   Density functional embedding theory  .... OFF
 RI-approximation to the Coulomb term is turned on
   Number of auxiliary basis functions  .... 226
   RI-JK (J+K treated both via RI)      .... on


General Settings:
 Integral files         IntName         .... 02_H2O_2
 Hartree-Fock type      HFTyp           .... RHF
 Total Charge           Charge          ....    0
 Multiplicity           Mult            ....    1
 Number of Electrons    NEL             ....   20
 Basis Dimension        Dim             ....  184
 Nuclear Repulsion      ENuc            ....     19.3626333336 Eh

Convergence Acceleration:
 DIIS                   CNVDIIS         .... on
   Start iteration      DIISMaxIt       ....    12
   Startup error        DIISStart       ....  0.200000
   # of expansion vecs  DIISMaxEq       ....     5
   Bias factor          DIISBfac        ....   1.050
   Max. coefficient     DIISMaxC        ....  10.000
 Newton-Raphson         CNVNR           .... off
 SOSCF                  CNVSOSCF        .... on
   Start iteration      SOSCFMaxIt      ....   150
   Startup grad/error   SOSCFStart      ....  0.003300
 Level Shifting         CNVShift        .... on
   Level shift para.    LevelShift      ....    0.2500
   Turn off err/grad.   ShiftErr        ....    0.0010
 Zerner damping         CNVZerner       .... off
 Static damping         CNVDamp         .... on
   Fraction old density DampFac         ....    0.7000
   Max. Damping (<1)    DampMax         ....    0.9800
   Min. Damping (>=0)   DampMin         ....    0.0000
   Turn off err/grad.   DampErr         ....    0.1000
 Fernandez-Rico         CNVRico         .... off

SCF Procedure:
 Maximum # iterations   MaxIter         ....   125
 SCF integral mode      SCFMode         .... Direct
   Integral package                     .... LIBINT
 Reset frequency        DirectResetFreq ....    20
 Integral Threshold     Thresh          ....  2.500e-11 Eh
 Primitive CutOff       TCut            ....  2.500e-12 Eh

Convergence Tolerance:
 Convergence Check Mode ConvCheckMode   .... Total+1el-Energy
 Convergence forced     ConvForced      .... 0
 Energy Change          TolE            ....  1.000e-08 Eh
 1-El. energy change                    ....  1.000e-05 Eh
 Orbital Gradient       TolG            ....  1.000e-05
 Orbital Rotation angle TolX            ....  1.000e-05
 DIIS Error             TolErr          ....  5.000e-07


Diagonalization of the overlap matrix:
Smallest eigenvalue                        ... 2.067e-03
Time for diagonalization                   ...    0.006 sec
Threshold for overlap eigenvalues          ... 1.000e-08
Number of eigenvalues below threshold      ... 0
Time for construction of square roots      ...    0.004 sec
Total time needed                          ...    0.010 sec

-------------------
DFT GRID GENERATION
-------------------

General Integration Accuracy     IntAcc      ...  4.670
Radial Grid Type                 RadialGrid  ... Gauss-Chebyshev
Angular Grid (max. acc.)         AngularGrid ... Lebedev-302
Angular grid pruning method      GridPruning ... 3 (G Style)
Weight generation scheme         WeightScheme... Becke
Basis function cutoff            BFCut       ...    1.0000e-11
Integration weight cutoff        WCut        ...    1.0000e-14
Grids for H and He will be reduced by one unit

# of grid points (after initial pruning)     ...  26000 (   0.0 sec)
# of grid points (after weights+screening)   ...  25747 (   0.0 sec)
nearest neighbour list constructed           ...    0.0 sec
Grid point re-assignment to atoms done       ...    0.0 sec
Grid point division into batches done        ...    0.1 sec
Reduced shell lists constructed in    0.1 sec

Total number of grid points                  ...    25747
Total number of batches                      ...      405
Average number of points per batch           ...       63
Average number of grid points per atom       ...     4291
Average number of shells per batch           ...    26.33 (41.15%)
Average number of basis functions per batch  ...    67.33 (36.59%)
Average number of large shells per batch     ...    19.17 (72.78%)
Average number of large basis fcns per batch ...    46.83 (69.55%)
Average number of aux-shells per batch       ...    26.33 (35.59%)
Average number of aux functions per batch    ...    67.33 (29.79%)
Maximum spatial batch extension              ...  12.44, 14.34, 16.88 au
Average spatial batch extension              ...   0.31,  0.35,  0.36 au

Time for grid setup =    0.152 sec

------------------------------
INITIAL GUESS: MODEL POTENTIAL
------------------------------
Loading Hartree-Fock densities                     ... done
Calculating cut-offs                               ... done
Setting up the integral package                    ... done
Initializing the effective Hamiltonian             ... done
Starting the Coulomb interaction                   ... done (   0.0 sec)
Reading the grid                                   ... done
Mapping shells                                     ... done
Starting the XC term evaluation                    ... done (   0.0 sec)
  promolecular density results
     # of electrons  =     19.998065321
     EX              =    -17.201078578
     EC              =     -0.041605670
     EX+EC           =    -17.242684248
Transforming the Hamiltonian                       ... done (   0.0 sec)
Diagonalizing the Hamiltonian                      ... done (   0.0 sec)
Back transforming the eigenvectors                 ... done (   0.0 sec)
Now organizing SCF variables                       ... done
                      ------------------
                      INITIAL GUESS DONE (   0.3 sec)
                      ------------------
--------------
SCF ITERATIONS
--------------
ITER       Energy         Delta-E        Max-DP      RMS-DP      [F,P]     Damp
  0   -151.3523460891   0.000000000000 0.05402925  0.00148860  0.4615319 0.7000
  1   -151.0128294351   0.339516653990 0.05797792  0.00159251  0.3633512 0.7000
                               ***Turning on DIIS***
  2   -151.0685860956  -0.055756660511 0.04081445  0.00103788  0.1524842 0.7000
  3   -151.3090979980  -0.240511902387 0.02419275  0.00060521  0.2872982 0.7000
  4   -151.4712541742  -0.162156176240 0.01587208  0.00032214  0.3236264 0.7000
  5   -151.5626405795  -0.091386405311 0.00865867  0.00023490  0.2791787 0.7000
  6   -151.6218090976  -0.059168518084 0.01063246  0.00023054  0.2388680 0.7000
  7   -151.6638213536  -0.042012255954 0.01286669  0.00031699  0.2239435 0.7000
  8   -151.7490590615  -0.085237707940 0.02301655  0.00055693  0.1998812 0.7000
  9   -151.8410583949  -0.091999333391 0.02430415  0.00062445  0.1655683 0.7000
 10   -151.8370394323   0.004018962601 0.05252098  0.00143416  0.0973411 0.0000
 11   -151.7152838013   0.121755630961 0.00560835  0.00017037  0.1358836 0.7000
 12   -151.7053041238   0.009979677567 0.00649766  0.00019403  0.1466725 0.7000
 13   -151.7121813055  -0.006877181769 0.00590383  0.00017415  0.1348023 0.7000
 14   -151.7245383528  -0.012357047282 0.00429252  0.00011580  0.1170497 0.7000
 15   -151.7337569882  -0.009218635410 0.02705686  0.00075027  0.0972605 0.0000
 16   -151.7779738724  -0.044216884204 0.00363075  0.00008521  0.0100941 0.0000
 17   -151.7782970732  -0.000323200721 0.00228012  0.00005022  0.0046139 0.0000
 18   -151.7784313551  -0.000134281939 0.00118172  0.00003467  0.0033849 0.0000
                      *** Initiating the SOSCF procedure ***
                           *** Shutting down DIIS ***
                      *** Re-Reading the Fockian *** 
                      *** Removing any level shift *** 
ITER      Energy       Delta-E        Grad      Rot      Max-DP    RMS-DP
 19   -151.77848974  -0.0000583838  0.001382  0.001382  0.000695  0.000021
 20   -151.77851280  -0.0000230608  0.001119  0.003435  0.001292  0.000027
 21   -151.77851821  -0.0000054151  0.001511  0.002165  0.000785  0.000022
 22   -151.77853626  -0.0000180424  0.000429  0.001792  0.000879  0.000020
 23   -151.77854100  -0.0000047386  0.000109  0.000779  0.000355  0.000009
 24   -151.77854140  -0.0000004067  0.000201  0.000541  0.000272  0.000005
 25   -151.77854160  -0.0000001980  0.000119  0.000329  0.000158  0.000003
 26   -151.77854171  -0.0000001135  0.000007  0.000017  0.000008  0.000000
                 **** Energy Check signals convergence ****
              ***Rediagonalizing the Fockian in SOSCF/NRSCF***

               *****************************************************
               *                     SUCCESS                       *
               *           SCF CONVERGED AFTER  27 CYCLES          *
               *****************************************************


----------------
TOTAL SCF ENERGY
----------------

Total Energy       :         -151.77854172 Eh           -4130.10409 eV

Components:
Nuclear Repulsion  :           19.36263333 Eh             526.88404 eV
Electronic Energy  :         -171.14117505 Eh           -4656.98813 eV
One Electron Energy:         -248.49390770 Eh           -6761.86299 eV
Two Electron Energy:           77.35273265 Eh            2104.87487 eV

Virial components:
Potential Energy   :         -301.77923806 Eh           -8211.83055 eV
Kinetic Energy     :          150.00069634 Eh            4081.72646 eV
Virial Ratio       :            2.01185225


DFT components:
N(Alpha)           :        9.999999368261 electrons
N(Beta)            :        9.999999368261 electrons
N(Total)           :       19.999998736522 electrons
E(X)               :       -4.978899808102 Eh       
E(C)               :       -0.344425167030 Eh       
E(XC)              :       -5.323324975132 Eh       
DFET-embed. en.    :        0.000000000000 Eh       

---------------
SCF CONVERGENCE
---------------

  Last Energy change         ...   -1.0852e-09  Tolerance :   1.0000e-08
  Last MAX-Density change    ...    3.5565e-06  Tolerance :   1.0000e-07
  Last RMS-Density change    ...    8.2850e-08  Tolerance :   5.0000e-09
  Last Orbital Gradient      ...    1.5085e-06  Tolerance :   1.0000e-05
  Last Orbital Rotation      ...    4.1266e-06  Tolerance :   1.0000e-05

             **** THE GBW FILE WAS UPDATED (02_H2O_2.gbw) ****
             **** DENSITY FILE WAS UPDATED (02_H2O_2.scfp) ****
             **** ENERGY FILE WAS UPDATED (02_H2O_2.en.tmp) ****
             **** THE GBW FILE WAS UPDATED (02_H2O_2.gbw) ****
             **** DENSITY FILE WAS UPDATED (02_H2O_2.scfp) ****
----------------
ORBITAL ENERGIES
----------------

  NO   OCC          E(Eh)            E(eV) 
   0   2.0000     -20.143680      -548.1374 
   1   2.0000     -20.127542      -547.6983 
   2   2.0000      -1.099403       -29.9163 
   3   2.0000      -1.082800       -29.4645 
   4   2.0000      -0.442070       -12.0293 
   5   2.0000      -0.430732       -11.7208 
   6   2.0000      -0.425447       -11.5770 
   7   2.0000      -0.414631       -11.2827 
   8   2.0000      -0.413187       -11.2434 
   9   2.0000      -0.396754       -10.7962 
  10   0.0000      -0.089945        -2.4475 
  11   0.0000      -0.071475        -1.9449 
  12   0.0000      -0.054718        -1.4889 
  13   0.0000      -0.037808        -1.0288 
  14   0.0000       0.052647         1.4326 
  15   0.0000       0.053211         1.4479 
  16   0.0000       0.061564         1.6753 
  17   0.0000       0.075633         2.0581 
  18   0.0000       0.120091         3.2678 
  19   0.0000       0.144156         3.9227 
  20   0.0000       0.147058         4.0017 
  21   0.0000       0.159818         4.3489 
  22   0.0000       0.173388         4.7181 
  23   0.0000       0.185050         5.0355 
  24   0.0000       0.198047         5.3891 
  25   0.0000       0.203086         5.5262 
  26   0.0000       0.216028         5.8784 
  27   0.0000       0.231097         6.2885 
  28   0.0000       0.248900         6.7729 
  29   0.0000       0.256613         6.9828 
  30   0.0000       0.257144         6.9972 
  31   0.0000       0.281403         7.6574 
  32   0.0000       0.288348         7.8463 
  33   0.0000       0.289944         7.8898 
  34   0.0000       0.301446         8.2028 
  35   0.0000       0.309288         8.4162 
  36   0.0000       0.321710         8.7542 
  37   0.0000       0.422648        11.5008 
  38   0.0000       0.509013        13.8509 
  39   0.0000       0.541047        14.7226 
  40   0.0000       0.543491        14.7891 
  41   0.0000       0.560529        15.2528 
  42   0.0000       0.649086        17.6625 
  43   0.0000       0.653709        17.7883 
  44   0.0000       0.669484        18.2176 
  45   0.0000       0.680320        18.5125 
  46   0.0000       0.687770        18.7152 
  47   0.0000       0.696544        18.9539 
  48   0.0000       0.707228        19.2446 
  49   0.0000       0.719169        19.5696 
  50   0.0000       0.721067        19.6212 
  51   0.0000       0.740690        20.1552 
  52   0.0000       0.774412        21.0728 
  53   0.0000       0.790551        21.5120 
  54   0.0000       0.806305        21.9407 
  55   0.0000       0.816626        22.2215 
  56   0.0000       0.829037        22.5592 
  57   0.0000       0.830567        22.6009 
  58   0.0000       0.835338        22.7307 
  59   0.0000       0.846210        23.0266 
  60   0.0000       0.846509        23.0347 
  61   0.0000       0.850749        23.1501 
  62   0.0000       0.880406        23.9571 
  63   0.0000       0.892729        24.2924 
  64   0.0000       0.910289        24.7702 
  65   0.0000       0.933765        25.4091 
  66   0.0000       0.935016        25.4431 
  67   0.0000       0.946875        25.7658 
  68   0.0000       0.948689        25.8151 
  69   0.0000       0.962466        26.1900 
  70   0.0000       0.963228        26.2108 
  71   0.0000       0.986874        26.8542 
  72   0.0000       0.995481        27.0884 
  73   0.0000       1.020928        27.7809 
  74   0.0000       1.048882        28.5415 
  75   0.0000       1.066203        29.0129 
  76   0.0000       1.078638        29.3512 
  77   0.0000       1.080490        29.4016 
  78   0.0000       1.096367        29.8337 
  79   0.0000       1.120055        30.4782 
  80   0.0000       1.124309        30.5940 
  81   0.0000       1.162829        31.6422 
  82   0.0000       1.188802        32.3489 
  83   0.0000       1.198343        32.6086 
  84   0.0000       1.218477        33.1565 
  85   0.0000       1.220059        33.1995 
  86   0.0000       1.332634        36.2628 
  87   0.0000       1.357013        36.9262 
  88   0.0000       1.590321        43.2748 
  89   0.0000       1.606367        43.7115 
  90   0.0000       1.868233        50.8372 
  91   0.0000       1.891777        51.4779 
  92   0.0000       2.063330        56.1461 
  93   0.0000       2.070008        56.3278 
  94   0.0000       2.073139        56.4130 
  95   0.0000       2.091579        56.9148 
  96   0.0000       2.100997        57.1710 
  97   0.0000       2.126352        57.8610 
  98   0.0000       2.138660        58.1959 
  99   0.0000       2.153872        58.6098 
 100   0.0000       2.168237        59.0007 
 101   0.0000       2.189523        59.5799 
 102   0.0000       2.193281        59.6822 
 103   0.0000       2.228696        60.6459 
 104   0.0000       2.235641        60.8349 
 105   0.0000       2.250132        61.2292 
 106   0.0000       2.253895        61.3316 
 107   0.0000       2.265453        61.6461 
 108   0.0000       2.304821        62.7174 
 109   0.0000       2.315540        63.0090 
 110   0.0000       2.363608        64.3170 
 111   0.0000       2.384861        64.8954 
 112   0.0000       2.417137        65.7736 
 113   0.0000       2.433669        66.2235 
 114   0.0000       2.448577        66.6292 
 115   0.0000       2.464676        67.0672 
 116   0.0000       2.915612        79.3378 
 117   0.0000       2.931365        79.7665 
 118   0.0000       2.936472        79.9055 
 119   0.0000       2.950934        80.2990 
 120   0.0000       3.693078       100.4938 
 121   0.0000       3.708924       100.9249 
 122   0.0000       3.714803       101.0849 
 123   0.0000       3.731890       101.5499 
 124   0.0000       3.741868       101.8214 
 125   0.0000       3.744896       101.9038 
 126   0.0000       3.758546       102.2752 
 127   0.0000       3.762431       102.3810 
 128   0.0000       3.770970       102.6133 
 129   0.0000       3.789857       103.1273 
 130   0.0000       3.809132       103.6518 
 131   0.0000       3.814396       103.7950 
 132   0.0000       3.836968       104.4092 
 133   0.0000       3.855297       104.9080 
 134   0.0000       3.889817       105.8473 
 135   0.0000       3.910210       106.4022 
 136   0.0000       3.964819       107.8882 
 137   0.0000       3.970554       108.0443 
 138   0.0000       3.972260       108.0907 
 139   0.0000       3.985201       108.4428 
 140   0.0000       3.993349       108.6646 
 141   0.0000       4.002433       108.9117 
 142   0.0000       4.018725       109.3551 
 143   0.0000       4.046057       110.0988 
 144   0.0000       4.116270       112.0094 
 145   0.0000       4.119021       112.0843 
 146   0.0000       4.147603       112.8620 
 147   0.0000       4.155098       113.0660 
 148   0.0000       4.173233       113.5594 
 149   0.0000       4.201034       114.3160 
 150   0.0000       4.248524       115.6082 
 151   0.0000       4.249685       115.6398 
 152   0.0000       4.369170       118.8912 
 153   0.0000       4.419292       120.2550 
 154   0.0000       4.501331       122.4875 
 155   0.0000       4.538989       123.5122 
 156   0.0000       4.583763       124.7305 
 157   0.0000       4.600061       125.1740 
 158   0.0000       6.369647       173.3269 
 159   0.0000       6.383524       173.7045 
 160   0.0000       6.407398       174.3542 
 161   0.0000       6.422080       174.7537 
 162   0.0000       6.478429       176.2870 
 163   0.0000       6.478749       176.2957 
 164   0.0000       6.492658       176.6742 
 165   0.0000       6.493923       176.7086 
 166   0.0000       6.512813       177.2226 
 167   0.0000       6.528101       177.6386 
 168   0.0000       6.628631       180.3742 
 169   0.0000       6.649908       180.9532 
 170   0.0000       6.683218       181.8596 
 171   0.0000       6.700607       182.3328 
 172   0.0000       6.887869       187.4284 
 173   0.0000       6.892280       187.5485 
 174   0.0000       6.894670       187.6135 
 175   0.0000       6.905048       187.8959 
 176   0.0000       6.905419       187.9060 
 177   0.0000       6.917258       188.2281 
 178   0.0000       6.974545       189.7870 
 179   0.0000       6.989362       190.1902 
 180   0.0000       7.136944       194.2061 
 181   0.0000       7.150597       194.5776 
 182   0.0000      10.173377       276.8317 
 183   0.0000      10.212196       277.8880 

                    ********************************
                    * MULLIKEN POPULATION ANALYSIS *
                    ********************************

-----------------------
MULLIKEN ATOMIC CHARGES
-----------------------
   0 O :   -0.521785
   1 H :    0.241670
   2 H :    0.277960
   3 O :   -0.514972
   4 H :    0.258564
   5 H :    0.258564
Sum of atomic charges:   -0.0000000

--------------------------------
MULLIKEN REDUCED ORBITAL CHARGES
--------------------------------
  0 O s       :     3.974700  s :     3.974700
      pz      :     1.986645  p :     4.527296
      px      :     1.261068
      py      :     1.279583
      dz2     :     0.003970  d :     0.018321
      dxz     :     0.000219
      dyz     :     0.000075
      dx2y2   :     0.010828
      dxy     :     0.003229
      f0      :     0.000108  f :     0.001468
      f+1     :     0.000427
      f-1     :     0.000530
      f+2     :     0.000001
      f-2     :     0.000003
      f+3     :     0.000048
      f-3     :     0.000352
  1 H s       :     0.736237  s :     0.736237
      pz      :     0.005426  p :     0.019398
      px      :     0.006252
      py      :     0.007719
      dz2     :     0.000349  d :     0.002695
      dxz     :     0.000953
      dyz     :     0.000140
      dx2y2   :     0.000305
      dxy     :     0.000949
  2 H s       :     0.700211  s :     0.700211
      pz      :     0.005343  p :     0.019418
      px      :     0.004802
      py      :     0.009273
      dz2     :     0.000266  d :     0.002411
      dxz     :     0.000024
      dyz     :     0.001102
      dx2y2   :     0.000539
      dxy     :     0.000480
  3 O s       :     3.969828  s :     3.969828
      pz      :     1.253513  p :     4.526001
      px      :     1.541626
      py      :     1.730862
      dz2     :     0.000743  d :     0.017696
      dxz     :     0.008991
      dyz     :     0.004847
      dx2y2   :     0.000477
      dxy     :     0.002637
      f0      :     0.000057  f :     0.001447
      f+1     :     0.000374
      f-1     :     0.000233
      f+2     :     0.000036
      f-2     :     0.000534
      f+3     :     0.000068
      f-3     :     0.000145
  4 H s       :     0.718460  s :     0.718460
      pz      :     0.009897  p :     0.020128
      px      :     0.004597
      py      :     0.005633
      dz2     :     0.000991  d :     0.002849
      dxz     :     0.000516
      dyz     :     0.000742
      dx2y2   :     0.000412
      dxy     :     0.000188
  5 H s       :     0.718460  s :     0.718460
      pz      :     0.009897  p :     0.020128
      px      :     0.004597
      py      :     0.005633
      dz2     :     0.000991  d :     0.002849
      dxz     :     0.000516
      dyz     :     0.000742
      dx2y2   :     0.000412
      dxy     :     0.000188


                     *******************************
                     * LOEWDIN POPULATION ANALYSIS *
                     *******************************

----------------------
LOEWDIN ATOMIC CHARGES
----------------------
   0 O :   -0.213835
   1 H :    0.092271
   2 H :    0.121255
   3 O :   -0.214834
   4 H :    0.107572
   5 H :    0.107572

-------------------------------
LOEWDIN REDUCED ORBITAL CHARGES
-------------------------------
  0 O s       :     3.711303  s :     3.711303
      pz      :     1.900262  p :     4.445977
      px      :     1.270852
      py      :     1.274863
      dz2     :     0.011760  d :     0.051381
      dxz     :     0.000346
      dyz     :     0.000103
      dx2y2   :     0.027281
      dxy     :     0.011890
      f0      :     0.000073  f :     0.005175
      f+1     :     0.000785
      f-1     :     0.000949
      f+2     :     0.000002
      f-2     :     0.000008
      f+3     :     0.000774
      f-3     :     0.002584
  1 H s       :     0.666145  s :     0.666145
      pz      :     0.022032  p :     0.127906
      px      :     0.075605
      py      :     0.030268
      dz2     :     0.015337  d :     0.113679
      dxz     :     0.024517
      dyz     :     0.003983
      dx2y2   :     0.040382
      dxy     :     0.029460
  2 H s       :     0.639127  s :     0.639127
      pz      :     0.021225  p :     0.129500
      px      :     0.022428
      py      :     0.085847
      dz2     :     0.014981  d :     0.110118
      dxz     :     0.000502
      dyz     :     0.026949
      dx2y2   :     0.042011
      dxy     :     0.025676
  3 O s       :     3.707885  s :     3.707885
      pz      :     1.257699  p :     4.450261
      px      :     1.514741
      py      :     1.677821
      dz2     :     0.012086  d :     0.051484
      dxz     :     0.022371
      dyz     :     0.012714
      dx2y2   :     0.000762
      dxy     :     0.003551
      f0      :     0.000010  f :     0.005204
      f+1     :     0.001974
      f-1     :     0.001180
      f+2     :     0.000122
      f-2     :     0.001741
      f+3     :     0.000047
      f-3     :     0.000130
  4 H s       :     0.652069  s :     0.652069
      pz      :     0.060159  p :     0.127414
      px      :     0.036797
      py      :     0.030459
      dz2     :     0.024524  d :     0.112945
      dxz     :     0.036817
      dyz     :     0.028833
      dx2y2   :     0.010730
      dxy     :     0.012041
  5 H s       :     0.652069  s :     0.652069
      pz      :     0.060159  p :     0.127414
      px      :     0.036797
      py      :     0.030459
      dz2     :     0.024524  d :     0.112945
      dxz     :     0.036817
      dyz     :     0.028833
      dx2y2   :     0.010730
      dxy     :     0.012041


                      *****************************
                      * MAYER POPULATION ANALYSIS *
                      *****************************

  NA   - Mulliken gross atomic population
  ZA   - Total nuclear charge
  QA   - Mulliken gross atomic charge
  VA   - Mayer's total valence
  BVA  - Mayer's bonded valence
  FA   - Mayer's free valence

  ATOM       NA         ZA         QA         VA         BVA        FA
  0 O      8.5218     8.0000    -0.5218     1.8718     1.8718    -0.0000
  1 H      0.7583     1.0000     0.2417     0.9590     0.9590    -0.0000
  2 H      0.7220     1.0000     0.2780     0.9389     0.9389    -0.0000
  3 O      8.5150     8.0000    -0.5150     1.8776     1.8776     0.0000
  4 H      0.7414     1.0000     0.2586     0.9507     0.9507     0.0000
  5 H      0.7414     1.0000     0.2586     0.9507     0.9507     0.0000

  Mayer bond orders larger than 0.100000
B(  0-O ,  1-H ) :   0.9470 B(  0-O ,  2-H ) :   0.9260 B(  3-O ,  4-H ) :   0.9393 
B(  3-O ,  5-H ) :   0.9393 

-------
TIMINGS
-------

Total SCF time: 0 days 0 hours 0 min 3 sec 

Total time                  ....       3.819 sec
Sum of individual times     ....       3.618 sec  ( 94.7%)

Fock matrix formation       ....       3.187 sec  ( 83.5%)
  XC integration            ....       0.513 sec  ( 16.1% of F)
    Basis function eval.    ....       0.096 sec  ( 18.8% of XC)
    Density eval.           ....       0.055 sec  ( 10.8% of XC)
    XC-Functional eval.     ....       0.025 sec  (  4.8% of XC)
    XC-Potential eval.      ....       0.093 sec  ( 18.1% of XC)
Diagonalization             ....       0.086 sec  (  2.2%)
Density matrix formation    ....       0.018 sec  (  0.5%)
Population analysis         ....       0.007 sec  (  0.2%)
Initial guess               ....       0.105 sec  (  2.7%)
Orbital Transformation      ....       0.000 sec  (  0.0%)
Orbital Orthonormalization  ....       0.000 sec  (  0.0%)
DIIS solution               ....       0.044 sec  (  1.1%)
SOSCF solution              ....       0.019 sec  (  0.5%)
Grid generation             ....       0.152 sec  (  4.0%)


           ************************************************************
           *        Program running with 24 parallel MPI-processes    *
           *              working on a common directory               *
           ************************************************************

------------------------------------------------------------------------------
                                ORCA  MP2 
------------------------------------------------------------------------------

Freezing NCore=4 chemical core electrons

----------------------
RI-MP2 ENERGY+GRADIENT
----------------------
Dimension of the basis                    ...  184
Memory devoted to MP2                     ... 5000 MB   
Data format for buffers                   ... DOUBLE
Compression type for matrix containers    ... UNCOMPRESSED
Scaling for aa/bb pairs                   ...   4.000e-01
Scaling for ab pairs                      ...   4.700e-01
Overall scaling of the MP2 energy         ...   1.000e+00
Calculating two index integrals           ... done (    0.001 sec)
Cholesky decomposition of the V-matrix    ... done
Cholesky decomposition of V**-1           ... done (    0.002 sec)

-----------------
RI-TRANSFORMATION (AUX index driven)
-----------------

Dimension of the orbital-basis         ... 184
Dimension of the aux-basis             ... 212
Transformation of internal MOs         ...    0-   9
Transformation of internal/external MOs...    0-   9 to   10- 183
Number Format for Storage              ... Double (8 Byte)
Integral mode                          ... Direct

First Phase: integral generation and transformation of MO indices
  Aux angular momentum 0               ... done (    0.002 sec)
  Aux angular momentum 1               ... done (    0.001 sec)
  Aux angular momentum 2               ... done (    0.002 sec)
  Aux angular momentum 3               ... done (    0.002 sec)
  Aux angular momentum 4               ... done (    0.003 sec)
Closing buffer VIJ ( 0.00 GB; CompressionRatio= 0.97)
Closing buffer VIA ( 0.00 GB; CompressionRatio= 1.00)
  Phase 1 completed in     0.098 sec
Second Phase: sorting and transformation of aux index

IJ-Transformation
Memory available                       ... 4995 MB 
Max. # MO pairs treated in a batch     ... 1    
# of internal orbitals                 ... 10
# batches for internal orbitals        ... 1
Closing buffer IJV ( 0.00 GB; CompressionRatio= 0.99)
(ij|v) transformation done in     0.009 sec

IA-Transformation
Memory available                       ... 4995 MB 
Max. # MO pairs treated in a batch     ... 1    
# of internal orbitals                 ... 10
# batches for internal orbitals        ... 1
Closing buffer IAV ( 0.00 GB; CompressionRatio= 1.00)
(ia|v) transformation done in     0.004 sec

  Phase 2 completed in     0.022 sec
RI-Integral transformation completed in     0.125 sec
Opening buffers                              ... done
Frozen core precalculation                   ... done

Starting loop over batches of integrals:

Operator 0  - window                       ... (  2-  9)x( 10-183)
Operator 0  - Memory available             ...  5000 MB
Operator 0  - Memory needed per MO         ...   0.6 MB
Operator 0  - Number of orbitals per batch ... 1
Operator 0  - Number of batches            ... 1

OPERATOR  0   PASS   0:  MOs     2 ...    2 +    3 ...    3 +    4 ...    4 +    5 ...    5
                            +    6 ...    6 +    7 ...    7 +    8 ...    8 +    9 ...    9
  Reading integrals       ... ok
Closing buffer GIPV ( 0.00 GB; CompressionRatio= 1.00)
Time spent in pair loops =     0.090 sec
Deleting buffer (Ka|jb)[aa] ...done

-----------------------------------------------
 RI-MP2 CORRELATION ENERGY:     -0.387200976 Eh
-----------------------------------------------


---------------------
MP2 DENSITY FORMATION
---------------------

Completing the external part of the density      ... done
Storing the unrelaxed density                    ... done

Calculating the xc-kernel                        ... done
Calculating G(D)                                 ... done
Completing the Lagrangian                        ... done
Solving the Z-vector equations                   ... 

------------------------------------------------------------------------------
                           ORCA CP-SCF CALCULATION
------------------------------------------------------------------------------

Input orbitals are from        ... 02_H2O_2.gbw
Input Perturbation             ... 02_H2O_2.pin.tmp
Wavefunction output            ... 02_H2O_2.pout.tmp
Perturbation mode              ... Real perturbation (singlet)
Solver                         ... POPLE
Max. number of iterations      ... 128
Convergence tolerance          ... 1.000e-08
Integral handling              ... Direct
Number of perturbations        ... 1
Number of operators            ... 1
Orbital ranges used for CP-SCF:
 Operator 0:  Orbitals   0...  9  to  10...183
DFT calculation                         ... on
Exchange functional (SCF)               ... B88
Exchange functional (CP-SCF)            ... B88
   X-Alpha parameter    XAlpha (SCF)    ...  0.666667
   X-Alpha parameter    XAlpha (CP-SCF) ...  0.666667
   Becke's b parameter  XBeta (SCF)     ...  0.004200
   Becke's b parameter  XBeta (CP-SCF)  ...  0.004200
Correlation functional (SCF)            ... LYP
Correlation functional (CP-SCF)         ... LYP
 LDA part of GGA corr.  LDAOpt (SCF)    ... VWN-5
 LDA part of GGA corr.  LDAOpt (CP-SCF) ... VWN-5
Hybrid DFT                              ... on
   Exchange mixing (SCF)                ...  0.710
   Exchange mixing (CP-SCF)             ...  0.710
   GGA exch. scaling(SCF)               ...  0.290
   GGA exch. scaling (CP-SCF)           ...  0.290
   GGA corr. scaling (SCF)              ...  0.540
   GGA corr. scaling (CP-SCF)           ...  0.540
Variables per vector in CP-SCF ... 1740
Number of vectors sought       ... 1
Recalculating density on grid  ... done
Calculating the xc-kernel      ... done
     CP-SCF ITERATION   0: 
     CP-SCF ITERATION   1:      0.017817029293
     CP-SCF ITERATION   2:      0.000530498726
     CP-SCF ITERATION   3:      0.000235949128
     CP-SCF ITERATION   4:      0.000049048434
     CP-SCF ITERATION   5:      0.000014323262
     CP-SCF ITERATION   6:      0.000000177951
     CP-SCF ITERATION   7:      0.000000005110
done
Finalizing the relaxed density                   ... done
Transforming P to the AO basis                   ... done
Storing the relaxed density                      ... done

------------------------------------
ENERGY WEIGHTED DENSITY FINALIZATION
------------------------------------

Gathering the parts of the W-matrix              ... done
Forming the Z-density                            ... done
Transforming Z to the AO basis                   ... done
Calculating G(Z)                                 ... done
Finalizing the W-matrix                          ... done
Transforming W to the AO basis and storing       ... done
Entering the RIJONX and RIJCOSX sections
Starting the three-index derivative integrals:
Operator 0  - Memory available             ...  5000 MB
Operator 0  - Memory needed per MO         ...   0.6 MB
Operator 0  - Number of orbitals per batch ... 1
Operator 0  - Number of batches            ... 1

OPERATOR  0   PASS   0:  MOs     2 ...    2 +    3 ...    3 +    4 ...    4 +    5 ...    5
                            +    6 ...    6 +    7 ...    7 +    8 ...    8 +    9 ...    9

----------------------------------
MP2 DERIVATIVE INTEGRAL GENERATION
----------------------------------


Input Correlated Electron Density   ... 02_H2O_2.pmp2re
Input Energy Weighted Density       ... 02_H2O_2.wmp2.tmp
Input SCF Electron Density          ... 02_H2O_2.scfp

One-Electron Terms    ...
                        ... One-Electron Terms done
Prescreening matrices              ... done
Exchange-correlation gradient    ... done
Dispersion correction            ... done

                *********************************************
                * UNRELAXED MP2 DENSITY POPULATION ANALYSIS *
                *********************************************

------------------------------------------------------------------------------
                           ORCA POPULATION ANALYSIS
------------------------------------------------------------------------------
Input electron density              ... 02_H2O_2.pmp2ur
BaseName (.gbw .S,...)              ... 02_H2O_2

                    ********************************
                    * MULLIKEN POPULATION ANALYSIS *
                    ********************************

-----------------------
MULLIKEN ATOMIC CHARGES
-----------------------
   0 O :   -0.483057
   1 H :    0.223669
   2 H :    0.257281
   3 O :   -0.476700
   4 H :    0.239404
   5 H :    0.239404
Sum of atomic charges:   -0.0000000

--------------------------------
MULLIKEN REDUCED ORBITAL CHARGES
--------------------------------
  0 O s       :     3.966609  s :     3.966609
      pz      :     1.977225  p :     4.479997
      px      :     1.242599
      py      :     1.260173
      dz2     :     0.006836  d :     0.033267
      dxz     :     0.003455
      dyz     :     0.003362
      dx2y2   :     0.013446
      dxy     :     0.006169
      f0      :     0.000381  f :     0.003184
      f+1     :     0.000660
      f-1     :     0.000755
      f+2     :     0.000268
      f-2     :     0.000264
      f+3     :     0.000293
      f-3     :     0.000563
  1 H s       :     0.751943  s :     0.751943
      pz      :     0.006656  p :     0.021437
      px      :     0.006628
      py      :     0.008153
      dz2     :     0.000352  d :     0.002952
      dxz     :     0.001086
      dyz     :     0.000193
      dx2y2   :     0.000386
      dxy     :     0.000934
  2 H s       :     0.718897  s :     0.718897
      pz      :     0.006541  p :     0.021108
      px      :     0.005490
      py      :     0.009078
      dz2     :     0.000280  d :     0.002713
      dxz     :     0.000050
      dyz     :     0.001264
      dx2y2   :     0.000587
      dxy     :     0.000532
  3 O s       :     3.961914  s :     3.961914
      pz      :     1.236445  p :     4.478895
      px      :     1.524828
      py      :     1.717622
      dz2     :     0.003767  d :     0.032725
      dxz     :     0.011770
      dyz     :     0.007889
      dx2y2   :     0.003679
      dxy     :     0.005619
      f0      :     0.000312  f :     0.003167
      f+1     :     0.000595
      f-1     :     0.000474
      f+2     :     0.000303
      f-2     :     0.000746
      f+3     :     0.000333
      f-3     :     0.000403
  4 H s       :     0.735612  s :     0.735612
      pz      :     0.009910  p :     0.021904
      px      :     0.005396
      py      :     0.006598
      dz2     :     0.000972  d :     0.003080
      dxz     :     0.000587
      dyz     :     0.000833
      dx2y2   :     0.000475
      dxy     :     0.000213
  5 H s       :     0.735612  s :     0.735612
      pz      :     0.009910  p :     0.021904
      px      :     0.005396
      py      :     0.006598
      dz2     :     0.000972  d :     0.003080
      dxz     :     0.000587
      dyz     :     0.000833
      dx2y2   :     0.000475
      dxy     :     0.000213


                     *******************************
                     * LOEWDIN POPULATION ANALYSIS *
                     *******************************

----------------------
LOEWDIN ATOMIC CHARGES
----------------------
   0 O :   -0.181133
   1 H :    0.076792
   2 H :    0.103946
   3 O :   -0.182124
   4 H :    0.091260
   5 H :    0.091260

-------------------------------
LOEWDIN REDUCED ORBITAL CHARGES
-------------------------------
  0 O s       :     3.705854  s :     3.705854
      pz      :     1.889669  p :     4.398663
      px      :     1.252559
      py      :     1.256436
      dz2     :     0.015519  d :     0.069251
      dxz     :     0.003457
      dyz     :     0.003293
      dx2y2   :     0.031741
      dxy     :     0.015241
      f0      :     0.000346  f :     0.007366
      f+1     :     0.001115
      f-1     :     0.001299
      f+2     :     0.000269
      f-2     :     0.000268
      f+3     :     0.001049
      f-3     :     0.003019
  1 H s       :     0.676703  s :     0.676703
      pz      :     0.023833  p :     0.132554
      px      :     0.078395
      py      :     0.030325
      dz2     :     0.015562  d :     0.113950
      dxz     :     0.024749
      dyz     :     0.004072
      dx2y2   :     0.040168
      dxy     :     0.029400
  2 H s       :     0.652016  s :     0.652016
      pz      :     0.022967  p :     0.133532
      px      :     0.022557
      py      :     0.088009
      dz2     :     0.015219  d :     0.110506
      dxz     :     0.000536
      dyz     :     0.027247
      dx2y2   :     0.042657
      dxy     :     0.024848
  3 O s       :     3.702540  s :     3.702540
      pz      :     1.241105  p :     4.402779
      px      :     1.497970
      py      :     1.663704
      dz2     :     0.015207  d :     0.069401
      dxz     :     0.026684
      dyz     :     0.016614
      dx2y2   :     0.003877
      dxy     :     0.007020
      f0      :     0.000274  f :     0.007404
      f+1     :     0.002376
      f-1     :     0.001527
      f+2     :     0.000400
      f-2     :     0.002106
      f+3     :     0.000314
      f-3     :     0.000407
  4 H s       :     0.663821  s :     0.663821
      pz      :     0.061310  p :     0.131730
      px      :     0.038340
      py      :     0.032080
      dz2     :     0.024043  d :     0.113189
      dxz     :     0.037204
      dyz     :     0.029148
      dx2y2   :     0.010823
      dxy     :     0.011971
  5 H s       :     0.663821  s :     0.663821
      pz      :     0.061310  p :     0.131730
      px      :     0.038340
      py      :     0.032080
      dz2     :     0.024043  d :     0.113189
      dxz     :     0.037204
      dyz     :     0.029148
      dx2y2   :     0.010823
      dxy     :     0.011971


                      *****************************
                      * MAYER POPULATION ANALYSIS *
                      *****************************

  NA   - Mulliken gross atomic population
  ZA   - Total nuclear charge
  QA   - Mulliken gross atomic charge
  VA   - Mayer's total valence
  BVA  - Mayer's bonded valence
  FA   - Mayer's free valence

  ATOM       NA         ZA         QA         VA         BVA        FA
  0 O      8.4831     8.0000    -0.4831     2.1507     1.5332     0.6175
  1 H      0.7763     1.0000     0.2237     0.9757     0.7879     0.1878
  2 H      0.7427     1.0000     0.2573     0.9570     0.7716     0.1855
  3 O      8.4767     8.0000    -0.4767     2.1564     1.5415     0.6149
  4 H      0.7606     1.0000     0.2394     0.9680     0.7826     0.1854
  5 H      0.7606     1.0000     0.2394     0.9680     0.7826     0.1854

  Mayer bond orders larger than 0.100000
B(  0-O ,  1-H ) :   0.7757 B(  0-O ,  2-H ) :   0.7585 B(  3-O ,  4-H ) :   0.7712 
B(  3-O ,  5-H ) :   0.7712 


                *******************************************
                * RELAXED MP2 DENSITY POPULATION ANALYSIS *
                *******************************************

------------------------------------------------------------------------------
                           ORCA POPULATION ANALYSIS
------------------------------------------------------------------------------
Input electron density              ... 02_H2O_2.pmp2re
BaseName (.gbw .S,...)              ... 02_H2O_2

                    ********************************
                    * MULLIKEN POPULATION ANALYSIS *
                    ********************************

-----------------------
MULLIKEN ATOMIC CHARGES
-----------------------
   0 O :   -0.449916
   1 H :    0.216176
   2 H :    0.231500
   3 O :   -0.440699
   4 H :    0.221470
   5 H :    0.221470
Sum of atomic charges:   -0.0000000

--------------------------------
MULLIKEN REDUCED ORBITAL CHARGES
--------------------------------
  0 O s       :     3.971933  s :     3.971933
      pz      :     1.966212  p :     4.446601
      px      :     1.223792
      py      :     1.256597
      dz2     :     0.005966  d :     0.028315
      dxz     :     0.003563
      dyz     :     0.003386
      dx2y2   :     0.010218
      dxy     :     0.005183
      f0      :     0.000400  f :     0.003067
      f+1     :     0.000642
      f-1     :     0.000713
      f+2     :     0.000268
      f-2     :     0.000264
      f+3     :     0.000280
      f-3     :     0.000500
  1 H s       :     0.755400  s :     0.755400
      pz      :     0.011338  p :     0.024193
      px      :     0.005084
      py      :     0.007771
      dz2     :     0.000395  d :     0.004232
      dxz     :     0.001844
      dyz     :     0.000383
      dx2y2   :     0.000790
      dxy     :     0.000821
  2 H s       :     0.742102  s :     0.742102
      pz      :     0.010895  p :     0.022573
      px      :     0.006472
      py      :     0.005206
      dz2     :     0.000312  d :     0.003825
      dxz     :     0.000045
      dyz     :     0.002164
      dx2y2   :     0.000601
      dxy     :     0.000702
  3 O s       :     3.967347  s :     3.967347
      pz      :     1.259769  p :     4.442520
      px      :     1.488726
      py      :     1.694026
      dz2     :     0.003347  d :     0.027778
      dxz     :     0.009073
      dyz     :     0.006431
      dx2y2   :     0.003735
      dxy     :     0.005191
      f0      :     0.000307  f :     0.003054
      f+1     :     0.000554
      f-1     :     0.000454
      f+2     :     0.000300
      f-2     :     0.000686
      f+3     :     0.000343
      f-3     :     0.000411
  4 H s       :     0.750675  s :     0.750675
      pz      :     0.007092  p :     0.023686
      px      :     0.007292
      py      :     0.009302
      dz2     :     0.000910  d :     0.004169
      dxz     :     0.000985
      dyz     :     0.001280
      dx2y2   :     0.000716
      dxy     :     0.000278
  5 H s       :     0.750675  s :     0.750675
      pz      :     0.007092  p :     0.023686
      px      :     0.007292
      py      :     0.009302
      dz2     :     0.000910  d :     0.004169
      dxz     :     0.000985
      dyz     :     0.001280
      dx2y2   :     0.000716
      dxy     :     0.000278


                     *******************************
                     * LOEWDIN POPULATION ANALYSIS *
                     *******************************

----------------------
LOEWDIN ATOMIC CHARGES
----------------------
   0 O :   -0.155715
   1 H :    0.070633
   2 H :    0.083779
   3 O :   -0.154635
   4 H :    0.077969
   5 H :    0.077969

-------------------------------
LOEWDIN REDUCED ORBITAL CHARGES
-------------------------------
  0 O s       :     3.705232  s :     3.705232
      pz      :     1.872184  p :     4.375849
      px      :     1.242844
      py      :     1.260820
      dz2     :     0.015999  d :     0.066797
      dxz     :     0.003345
      dyz     :     0.003269
      dx2y2   :     0.029760
      dxy     :     0.014425
      f0      :     0.000341  f :     0.007837
      f+1     :     0.001206
      f-1     :     0.001375
      f+2     :     0.000269
      f-2     :     0.000268
      f+3     :     0.001058
      f-3     :     0.003319
  1 H s       :     0.676770  s :     0.676770
      pz      :     0.031127  p :     0.137401
      px      :     0.078253
      py      :     0.028021
      dz2     :     0.015845  d :     0.115196
      dxz     :     0.026172
      dyz     :     0.004417
      dx2y2   :     0.040079
      dxy     :     0.028682
  2 H s       :     0.668214  s :     0.668214
      pz      :     0.029812  p :     0.136607
      px      :     0.021572
      py      :     0.085222
      dz2     :     0.015413  d :     0.111400
      dxz     :     0.000525
      dyz     :     0.028972
      dx2y2   :     0.043038
      dxy     :     0.023452
  3 O s       :     3.702461  s :     3.702461
      pz      :     1.268418  p :     4.377357
      px      :     1.468659
      py      :     1.640281
      dz2     :     0.015254  d :     0.066929
      dxz     :     0.024910
      dyz     :     0.015676
      dx2y2   :     0.003755
      dxy     :     0.007335
      f0      :     0.000272  f :     0.007888
      f+1     :     0.002625
      f-1     :     0.001673
      f+2     :     0.000404
      f-2     :     0.002157
      f+3     :     0.000318
      f-3     :     0.000438
  4 H s       :     0.672427  s :     0.672427
      pz      :     0.057861  p :     0.135408
      px      :     0.041066
      py      :     0.036482
      dz2     :     0.022608  d :     0.114195
      dxz     :     0.038197
      dyz     :     0.030208
      dx2y2   :     0.011287
      dxy     :     0.011895
  5 H s       :     0.672427  s :     0.672427
      pz      :     0.057861  p :     0.135408
      px      :     0.041066
      py      :     0.036482
      dz2     :     0.022608  d :     0.114195
      dxz     :     0.038197
      dyz     :     0.030208
      dx2y2   :     0.011287
      dxy     :     0.011895


                      *****************************
                      * MAYER POPULATION ANALYSIS *
                      *****************************

  NA   - Mulliken gross atomic population
  ZA   - Total nuclear charge
  QA   - Mulliken gross atomic charge
  VA   - Mayer's total valence
  BVA  - Mayer's bonded valence
  FA   - Mayer's free valence

  ATOM       NA         ZA         QA         VA         BVA        FA
  0 O      8.4499     8.0000    -0.4499     2.1551     1.5684     0.5867
  1 H      0.7838     1.0000     0.2162     0.9891     0.8034     0.1857
  2 H      0.7685     1.0000     0.2315     0.9779     0.7949     0.1829
  3 O      8.4407     8.0000    -0.4407     2.1583     1.5748     0.5834
  4 H      0.7785     1.0000     0.2215     0.9852     0.8021     0.1831
  5 H      0.7785     1.0000     0.2215     0.9852     0.8021     0.1831

  Mayer bond orders larger than 0.100000
B(  0-O ,  1-H ) :   0.7890 B(  0-O ,  2-H ) :   0.7804 B(  3-O ,  4-H ) :   0.7881 
B(  3-O ,  5-H ) :   0.7881 


-------
TIMINGS
-------

Total time                :    5.769 sec
Integral trafo            :    0.136 sec (  2.4%)
FC preparation            :    0.007 sec (  0.1%)
I/O of integrals          :    0.000 sec (  0.0%)
K(i,j) Operators          :    0.002 sec (  0.0%)
T(i,j) pair energies      :    0.002 sec (  0.0%)
V-calculation             :    0.001 sec (  0.0%)
V**(-1/2)                 :    0.002 sec (  0.0%)
Gamma(ia|P)               :    0.001 sec (  0.0%)
Gamma-Trafo               :    0.002 sec (  0.0%)
D(virtual)                :    0.000 sec (  0.0%)
D(internal)               :    0.003 sec (  0.1%)
W(virtual)                :    0.001 sec (  0.0%)
W(internal)               :    0.002 sec (  0.0%)
L(virtual)                :    0.065 sec (  1.1%)
L(internal)               :    0.000 sec (  0.0%)
G(D)                      :    0.580 sec ( 10.1%)
G(Z)                      :    0.631 sec ( 10.9%)
Z-Vector Solution         :    2.466 sec ( 42.7%)
Z-Vector Solution         :    2.466 sec ( 42.7%)
3-Index Derivative 
+ Separable RIJ part      :    0.318 sec (  5.5%)
2-Index Derivative 
+ Separable RIJ part      :    0.001 sec (  0.0%)
Separable Gradient (X)    :    0.670 sec ( 11.6%)


---------------------------------------
MP2 TOTAL ENERGY:     -152.165742691 Eh
---------------------------------------

-----------------------------------
NORM OF THE MP2 GRADIENT:  0.191031
-----------------------------------


-------------------------------------------------------------------------------
                          DFT DISPERSION CORRECTION                            
                                                                               
                              DFTD3 V3.1  Rev 1                                
                          USING Becke-Johnson damping                          
-------------------------------------------------------------------------------
The DSD-BLYP/2013 functional is recognized
Active option DFTDOPT                   ...         4   

molecular C6(AA) [au] = 341.285125 


            DFT-D V3
 parameters
 s6 scaling factor         :     0.5700 
 a1 scaling factor         :     0.0000 
 s8 scaling factor         :     0.0000 
 a2 scaling factor         :     5.4000 
 ad hoc parameters k1-k3   :    16.0000     1.3333    -4.0000 

 Edisp/kcal,au: -0.695503257593  -0.001108354873 
 E6   /kcal   :  -0.695503258 
 E8   /kcal   :  -0.000000000 
 % E8         :   0.000000000 

-------------------------   ----------------
Dispersion correction           -0.001108355
-------------------------   ----------------


-------------------------   --------------------
FINAL SINGLE POINT ENERGY      -152.166851045640
-------------------------   --------------------

------------------------------------------------------------------------------
                         ORCA GEOMETRY RELAXATION STEP
------------------------------------------------------------------------------

Reading the OPT-File                    ....done
Number of atoms                         ....   6
Number of degrees of freedom            ....  18
Current Energy                          ....  -152.166851046 Eh
Current gradient norm                   ....     0.191030798 Eh/bohr
# of structures/gradients available     ....   1
# of structures/gradients to be used    ....   1
First structure used                    ....   0
Maximum allowed component of the step   ....  0.300
Transforming the gradients              ....done
Building the approximate hessian        ....(skipped:first point)done
Eigenvalues of the approximate hessian:
  0.000016  0.000204  0.006793  0.009921  0.016509  0.024360
  0.027547  0.035840  0.040917  0.057318  0.064962  0.073972
 1000.000000 1000.000000 1000.000000 1000.000000 1000.000000 1000.000000

computing the step                      ....done

The length of the step is               ....     1.122497
Storing new coordinates                 ....done
The predicted energy change is          ....    -0.036868029

                                .--------------------.
          ----------------------|Geometry convergence|-------------------------
          Item                value                   Tolerance       Converged
          ---------------------------------------------------------------------
          RMS gradient        0.0450263908            0.0001000000      NO
          MAX gradient        0.0745035346            0.0003000000      NO
          RMS step            0.2645751311            0.0020000000      NO
          MAX step            0.3000000000            0.0040000000      NO
          -------------------------------------------------------------------------

The optimization has not yet converged - more geometry cycles are needed


         *************************************************************
         *                GEOMETRY OPTIMIZATION CYCLE   2            *
         *************************************************************
---------------------------------
CARTESIAN COORDINATES (ANGSTROEM)
---------------------------------
  O      0.285050    2.659885   -0.000001
  H     -1.391367    3.343533    0.000002
  H      0.046620    0.851695   -0.000000
  O     -0.276186   -2.521600   -0.000000
  H      0.602035   -3.194959   -1.277824
  H      0.602035   -3.194959    1.277824

----------------------------
CARTESIAN COORDINATES (A.U.)
----------------------------
  NO LB      ZA    FRAG     MASS         X           Y           Z
   0 O     8.0000    0    15.999    0.538666    5.026455   -0.000001
   1 H     1.0000    0     1.008   -2.629303    6.318361    0.000004
   2 H     1.0000    0     1.008    0.088099    1.609471   -0.000001
   3 O     8.0000    0    15.999   -0.521915   -4.765133   -0.000000
   4 H     1.0000    0     1.008    1.137682   -6.037597   -2.414737
   5 H     1.0000    0     1.008    1.137682   -6.037597    2.414737

--------------------------------
INTERNAL COORDINATES (ANGSTROEM)
--------------------------------
 O      0   0   0     0.000000000000     0.00000000     0.00000000
 H      1   0   0     1.810455162289     0.00000000     0.00000000
 H      1   2   0     1.823841802746   104.67403348     0.00000000
 O      3   1   2     3.388705470710   177.95450080   180.00006553
 H      4   3   1     1.690419131830   110.30618616   306.29175843
 H      4   3   1     1.690419418776   110.30618791    53.70830451

---------------------------
INTERNAL COORDINATES (A.U.)
---------------------------
 O      0   0   0     0.000000000000     0.00000000     0.00000000
 H      1   0   0     3.421264434470     0.00000000     0.00000000
 H      1   2   0     3.446561518788   104.67403348     0.00000000
 O      3   1   2     6.403725288163   177.95450080   180.00006553
 H      4   3   1     3.194429210699   110.30618616   306.29175843
 H      4   3   1     3.194429752949   110.30618791    53.70830451



           ************************************************************
           *        Program running with 24 parallel MPI-processes    *
           *              working on a common directory               *
           ************************************************************
 One Electron integrals                  ... done
 Pre-screening matrix                    ... done


           ************************************************************
           *        Program running with 24 parallel MPI-processes    *
           *              working on a common directory               *
           ************************************************************

Diagonalization of the overlap matrix:
Smallest eigenvalue                        ... 1.497e-03
Time for diagonalization                   ...    0.007 sec
Threshold for overlap eigenvalues          ... 1.000e-08
Number of eigenvalues below threshold      ... 0
Time for construction of square roots      ...    0.003 sec
Total time needed                          ...    0.011 sec

-------------------
DFT GRID GENERATION
-------------------

General Integration Accuracy     IntAcc      ...  4.670
Radial Grid Type                 RadialGrid  ... Gauss-Chebyshev
Angular Grid (max. acc.)         AngularGrid ... Lebedev-302
Angular grid pruning method      GridPruning ... 3 (G Style)
Weight generation scheme         WeightScheme... Becke
Basis function cutoff            BFCut       ...    1.0000e-11
Integration weight cutoff        WCut        ...    1.0000e-14
Grids for H and He will be reduced by one unit

# of grid points (after initial pruning)     ...  26000 (   0.0 sec)
# of grid points (after weights+screening)   ...  25715 (   0.0 sec)
nearest neighbour list constructed           ...    0.0 sec
Grid point re-assignment to atoms done       ...    0.0 sec
Grid point division into batches done        ...    0.1 sec
Reduced shell lists constructed in    0.1 sec

Total number of grid points                  ...    25715
Total number of batches                      ...      405
Average number of points per batch           ...       63
Average number of grid points per atom       ...     4286
Average number of shells per batch           ...    26.17 (40.89%)
Average number of basis functions per batch  ...    66.28 (36.02%)
Average number of large shells per batch     ...    19.06 (72.82%)
Average number of large basis fcns per batch ...    46.50 (70.16%)
Average number of aux-shells per batch       ...    26.17 (35.36%)
Average number of aux functions per batch    ...    66.28 (29.33%)
Maximum spatial batch extension              ...  12.44, 14.34, 16.88 au
Average spatial batch extension              ...   0.31,  0.34,  0.36 au

Time for grid setup =    0.135 sec

--------------
SCF ITERATIONS
--------------
ITER       Energy         Delta-E        Max-DP      RMS-DP      [F,P]     Damp
  0   -151.8290527697   0.000000000000 0.00325131  0.00005456  0.0218630 0.7000
  1   -151.8387804277  -0.009727658030 0.00389238  0.00005952  0.0197112 0.7000
                               ***Turning on DIIS***
  2   -151.8395601149  -0.000779687242 0.00920250  0.00015408  0.0122017 0.0000
  3   -151.8297824290   0.009777685960 0.00363015  0.00007686  0.0207420 0.0000
  4   -151.8303363827  -0.000553953731 0.00171622  0.00003082  0.0036198 0.0000
                      *** Initiating the SOSCF procedure ***
                           *** Shutting down DIIS ***
                      *** Re-Reading the Fockian *** 
                      *** Removing any level shift *** 
ITER      Energy       Delta-E        Grad      Rot      Max-DP    RMS-DP
  5   -151.83037756  -0.0000411794  0.000619  0.000619  0.000592  0.000014
  6   -151.83038618  -0.0000086159  0.000517  0.001400  0.000608  0.000015
  7   -151.83038489   0.0000012846  0.000849  0.000735  0.000436  0.000008
  8   -151.83038926  -0.0000043674  0.000149  0.000368  0.000197  0.000003
  9   -151.83038956  -0.0000002967  0.000071  0.000568  0.000280  0.000006
 10   -151.83038960  -0.0000000420  0.000140  0.000134  0.000070  0.000002
 11   -151.83038975  -0.0000001465  0.000013  0.000019  0.000014  0.000000
                 **** Energy Check signals convergence ****
              ***Rediagonalizing the Fockian in SOSCF/NRSCF***

               *****************************************************
               *                     SUCCESS                       *
               *           SCF CONVERGED AFTER  12 CYCLES          *
               *****************************************************

Total Energy       :         -151.83038975 Eh           -4131.51495 eV
  Last Energy change         ...   -2.6314e-09  Tolerance :   1.0000e-08
  Last MAX-Density change    ...    7.3765e-06  Tolerance :   1.0000e-07
             **** THE GBW FILE WAS UPDATED (02_H2O_2.gbw) ****
             **** DENSITY FILE WAS UPDATED (02_H2O_2.scfp) ****
             **** ENERGY FILE WAS UPDATED (02_H2O_2.en.tmp) ****
             **** THE GBW FILE WAS UPDATED (02_H2O_2.gbw) ****
             **** DENSITY FILE WAS UPDATED (02_H2O_2.scfp) ****
Total SCF time: 0 days 0 hours 0 min 2 sec 


           ************************************************************
           *        Program running with 24 parallel MPI-processes    *
           *              working on a common directory               *
           ************************************************************

------------------------------------------------------------------------------
                                ORCA  MP2 
------------------------------------------------------------------------------

Freezing NCore=4 chemical core electrons

----------------------
RI-MP2 ENERGY+GRADIENT
----------------------
Dimension of the basis                    ...  184
Memory devoted to MP2                     ... 5000 MB   
Data format for buffers                   ... DOUBLE
Compression type for matrix containers    ... UNCOMPRESSED
Scaling for aa/bb pairs                   ...   4.000e-01
Scaling for ab pairs                      ...   4.700e-01
Overall scaling of the MP2 energy         ...   1.000e+00
Calculating two index integrals           ... done (    0.001 sec)
Cholesky decomposition of the V-matrix    ... done
Cholesky decomposition of V**-1           ... done (    0.002 sec)

-----------------
RI-TRANSFORMATION (AUX index driven)
-----------------

Dimension of the orbital-basis         ... 184
Dimension of the aux-basis             ... 212
Transformation of internal MOs         ...    0-   9
Transformation of internal/external MOs...    0-   9 to   10- 183
Number Format for Storage              ... Double (8 Byte)
Integral mode                          ... Direct

First Phase: integral generation and transformation of MO indices
  Aux angular momentum 0               ... done (    0.002 sec)
  Aux angular momentum 1               ... done (    0.001 sec)
  Aux angular momentum 2               ... done (    0.002 sec)
  Aux angular momentum 3               ... done (    0.003 sec)
  Aux angular momentum 4               ... done (    0.004 sec)
Closing buffer VIJ ( 0.00 GB; CompressionRatio= 0.97)
[...]
GBWName                                         ... 02_H2O_2.gbw
Electron density file                           ... 02_H2O_2.scfp
The origin for moment calculation is the CENTER OF MASS  = ( 0.201974, -0.405179  1.410127)

-------------
DIPOLE MOMENT
-------------
                                X             Y             Z
Electronic contribution:      0.00294      -0.00631       0.03073
Nuclear contribution   :      0.00767      -1.04613      -0.12285
                        -----------------------------------------
Total Dipole Moment    :      0.01061      -1.05244      -0.09211
                        -----------------------------------------
Magnitude (a.u.)       :      1.05652
Magnitude (Debye)      :      2.68546



--------------------
Rotational spectrum 
--------------------
 
Rotational constants in cm-1:     7.278803     0.215739     0.215611 
Rotational constants in MHz : 218213.027625  6467.698624  6463.846305 

 Dipole components along the rotational axes: 
x,y,z [a.u.] :     1.055950    -0.028574    -0.019686 
x,y,z [Debye]:     2.684013    -0.072629    -0.050039 

 

                         *** MP2 UNRELAXED DENSITY ***

------------------------------------------------------------------------------
                       ORCA ELECTRIC PROPERTIES CALCULATION
------------------------------------------------------------------------------

Dipole Moment Calculation                       ... on
Quadrupole Moment Calculation                   ... off
Polarizability Calculation                      ... off
GBWName                                         ... 02_H2O_2.gbw
Electron density file                           ... 02_H2O_2.pmp2ur
The origin for moment calculation is the CENTER OF MASS  = ( 0.201974, -0.405179  1.410127)

-------------
DIPOLE MOMENT
-------------
                                X             Y             Z
Electronic contribution:      0.00290       0.00212       0.03229
Nuclear contribution   :      0.00767      -1.04613      -0.12285
                        -----------------------------------------
Total Dipole Moment    :      0.01057      -1.04402      -0.09056
                        -----------------------------------------
Magnitude (a.u.)       :      1.04799
Magnitude (Debye)      :      2.66378



--------------------
Rotational spectrum 
--------------------
 
Rotational constants in cm-1:     7.278803     0.215739     0.215611 
Rotational constants in MHz : 218213.027625  6467.698624  6463.846305 

 Dipole components along the rotational axes: 
x,y,z [a.u.] :     1.047450    -0.027905    -0.018844 
x,y,z [Debye]:     2.662406    -0.070929    -0.047898 

 

                           *** MP2 RELAXED DENSITY ***

------------------------------------------------------------------------------
                       ORCA ELECTRIC PROPERTIES CALCULATION
------------------------------------------------------------------------------

Dipole Moment Calculation                       ... on
Quadrupole Moment Calculation                   ... off
Polarizability Calculation                      ... off
GBWName                                         ... 02_H2O_2.gbw
Electron density file                           ... 02_H2O_2.pmp2re
The origin for moment calculation is the CENTER OF MASS  = ( 0.201974, -0.405179  1.410127)

-------------
DIPOLE MOMENT
-------------
                                X             Y             Z
Electronic contribution:      0.00274       0.01837       0.03519
Nuclear contribution   :      0.00767      -1.04613      -0.12285
                        -----------------------------------------
Total Dipole Moment    :      0.01041      -1.02776      -0.08766
                        -----------------------------------------
Magnitude (a.u.)       :      1.03154
Magnitude (Debye)      :      2.62198



--------------------
Rotational spectrum 
--------------------
 
Rotational constants in cm-1:     7.278803     0.215739     0.215611 
Rotational constants in MHz : 218213.027625  6467.698624  6463.846305 

 Dipole components along the rotational axes: 
x,y,z [a.u.] :     1.031054    -0.026725    -0.017260 
x,y,z [Debye]:     2.620731    -0.067930    -0.043872 

 

----------------------------------------------------------------------------
                           ORCA NUMERICAL FREQUENCIES
                              (24-process run)
----------------------------------------------------------------------------

Number of atoms                ... 6
Central differences            ... used
Number of displacements        ... 36
Numerical increment            ... 5.000e-03 bohr
IR-spectrum generation         ... on
Raman-spectrum generation      ... off
Surface Crossing Hessian       ... off

 WARNING: There are more processes than displacements to do
  ====> : Reducing number of processes to  18

The output will be reduced. Please look at the following files:
SCF program output             ... >02_H2O_2.lastscf
Integral program output        ... >02_H2O_2.lastint
Gradient program output        ... >02_H2O_2.lastgrad
Dipole moment program output   ... >02_H2O_2.lastmom
AutoCI program output          ... >02_H2O_2.lastautoci


         <<< Energy and Gradient at the input geometry >>>

        <<< Energy and Gradient at displaced geometries >>>
             <<<Displacing   3/coordinate 1 (+)>>>
             <<<Displacing   1/coordinate 1 (+)>>>
             <<<Displacing   1/coordinate 2 (+)>>>
             <<<Displacing   1/coordinate 3 (+)>>>
             <<<Displacing   2/coordinate 1 (+)>>>
             <<<Displacing   2/coordinate 3 (+)>>>
             <<<Displacing   3/coordinate 2 (+)>>>
             <<<Displacing   3/coordinate 3 (+)>>>
             <<<Displacing   4/coordinate 1 (+)>>>
             <<<Displacing   4/coordinate 2 (+)>>>
             <<<Displacing   2/coordinate 2 (+)>>>
             <<<Displacing   4/coordinate 3 (+)>>>
             <<<Displacing   5/coordinate 2 (+)>>>
             <<<Displacing   6/coordinate 1 (+)>>>
             <<<Displacing   5/coordinate 1 (+)>>>
             <<<Displacing   5/coordinate 3 (+)>>>
             <<<Displacing   6/coordinate 2 (+)>>>
             <<<Displacing   6/coordinate 3 (+)>>>
             <<<Displacing   1/coordinate 1 (-)>>>
             <<<Displacing   2/coordinate 1 (-)>>>
             <<<Displacing   5/coordinate 3 (-)>>>
             <<<Displacing   6/coordinate 1 (-)>>>
             <<<Displacing   5/coordinate 1 (-)>>>
             <<<Displacing   3/coordinate 2 (-)>>>
             <<<Displacing   6/coordinate 2 (-)>>>
             <<<Displacing   4/coordinate 2 (-)>>>
             <<<Displacing   1/coordinate 2 (-)>>>
             <<<Displacing   1/coordinate 3 (-)>>>
             <<<Displacing   4/coordinate 1 (-)>>>
             <<<Displacing   3/coordinate 1 (-)>>>
             <<<Displacing   2/coordinate 2 (-)>>>
             <<<Displacing   5/coordinate 2 (-)>>>
             <<<Displacing   3/coordinate 3 (-)>>>
             <<<Displacing   2/coordinate 3 (-)>>>
             <<<Displacing   4/coordinate 3 (-)>>>
             <<<Displacing   6/coordinate 3 (-)>>>

-----------------------
VIBRATIONAL FREQUENCIES
-----------------------

Scaling factor for frequencies =  1.000000000 (already applied!)

   0:         0.00 cm**-1
   1:         0.00 cm**-1
   2:         0.00 cm**-1
   3:         0.00 cm**-1
   4:         0.00 cm**-1
   5:         0.00 cm**-1
   6:       113.37 cm**-1
   7:       141.01 cm**-1
   8:       149.62 cm**-1
   9:       187.36 cm**-1
  10:       363.01 cm**-1
  11:       631.68 cm**-1
  12:      1641.21 cm**-1
  13:      1662.83 cm**-1
  14:      3733.79 cm**-1
  15:      3833.61 cm**-1
  16:      3922.86 cm**-1
  17:      3943.76 cm**-1


------------
NORMAL MODES
------------

These modes are the cartesian displacements weighted by the diagonal matrix
M(i,i)=1/sqrt(m[i]) where m[i] is the mass of the displaced atom
Thus, these vectors are normalized but *not* orthogonal

                  0          1          2          3          4          5    
      0       0.000000   0.000000   0.000000   0.000000   0.000000   0.000000
      1       0.000000   0.000000   0.000000   0.000000   0.000000   0.000000
      2       0.000000   0.000000   0.000000   0.000000   0.000000   0.000000
      3       0.000000   0.000000   0.000000   0.000000   0.000000   0.000000
      4       0.000000   0.000000   0.000000   0.000000   0.000000   0.000000
      5       0.000000   0.000000   0.000000   0.000000   0.000000   0.000000
      6       0.000000   0.000000   0.000000   0.000000   0.000000   0.000000
      7       0.000000   0.000000   0.000000   0.000000   0.000000   0.000000
      8       0.000000   0.000000   0.000000   0.000000   0.000000   0.000000
      9       0.000000   0.000000   0.000000   0.000000   0.000000   0.000000
     10       0.000000   0.000000   0.000000   0.000000   0.000000   0.000000
     11       0.000000   0.000000   0.000000   0.000000   0.000000   0.000000
     12       0.000000   0.000000   0.000000   0.000000   0.000000   0.000000
     13       0.000000   0.000000   0.000000   0.000000   0.000000   0.000000
     14       0.000000   0.000000   0.000000   0.000000   0.000000   0.000000
     15       0.000000   0.000000   0.000000   0.000000   0.000000   0.000000
     16       0.000000   0.000000   0.000000   0.000000   0.000000   0.000000
     17       0.000000   0.000000   0.000000   0.000000   0.000000   0.000000
                  6          7          8          9         10         11    
      0       0.063707   0.008486   0.010445  -0.006374   0.000824   0.028216
      1       0.014626   0.001502  -0.125644   0.232005  -0.034094   0.001768
      2       0.001671   0.000247   0.002647   0.027389  -0.015225   0.000547
      3      -0.582297  -0.567470  -0.083251  -0.014413  -0.023415   0.016294
      4      -0.038141  -0.026485   0.201355   0.540400   0.576355   0.004527
      5      -0.028186  -0.016885   0.166282   0.180881   0.292649   0.001995
      6      -0.218286   0.309002  -0.014585   0.005568   0.018883  -0.923934
      7      -0.001817   0.011798  -0.058526   0.300925   0.086237  -0.034626
      8       0.023714   0.013689  -0.339054  -0.304120  -0.587420  -0.024492
      9      -0.008826   0.039308  -0.000454   0.008992  -0.001516   0.038089
     10      -0.004695  -0.000702   0.051867  -0.309394   0.026388  -0.000085
     11       0.003967   0.001105  -0.035846  -0.065188   0.058508   0.001080
     12      -0.014093  -0.249256  -0.024460  -0.008541   0.003940  -0.075888
     13      -0.454022   0.465346   0.462761   0.184700  -0.259726   0.256941
     14      -0.416542  -0.116576   0.295706   0.354201  -0.197251   0.022793
     15      -0.056391  -0.250859  -0.036273  -0.024164   0.011574  -0.068860
     16       0.336366  -0.463358   0.565396   0.202298  -0.280570  -0.253544
     17       0.331529   0.098308   0.404012   0.368973  -0.194976  -0.026120
                 12         13         14         15         16         17    
      0       0.000622  -0.002522  -0.002490   0.000200  -0.000574  -0.000031
      1      -0.007044   0.026112   0.048827  -0.003234   0.045699   0.000070
      2      -0.014146   0.061084   0.025526  -0.003343  -0.048059  -0.000052
      3      -0.006936   0.029462  -0.000204  -0.000005  -0.003534   0.000300
      4       0.130587  -0.571980   0.163323  -0.025850  -0.448173  -0.000496
      5       0.067224  -0.292626  -0.249946   0.042508   0.843584   0.000945
      6      -0.002425   0.011120   0.039857  -0.003140   0.012677  -0.000701
      7      -0.028596   0.146471  -0.934878   0.078325  -0.275208  -0.000655
      8       0.158134  -0.715442  -0.155001   0.009096  -0.081190  -0.000162
      9       0.002070   0.000415   0.000113   0.001052   0.000057  -0.070404
     10       0.045215   0.012012   0.002942   0.031378  -0.000807  -0.000876
     11      -0.052907  -0.008270  -0.003645  -0.037971   0.000929  -0.003097
     12       0.397858   0.090402  -0.052168  -0.591370   0.014323   0.576541
     13      -0.350165  -0.088210  -0.025545  -0.253170   0.005181   0.279758
     14       0.439302   0.089213   0.026245   0.271959  -0.006005  -0.306270
     15      -0.431224  -0.097535   0.050254   0.574650  -0.015269   0.541811
     16      -0.357667  -0.091390  -0.024572  -0.246007   0.005670  -0.265809
     17       0.399600   0.080597   0.031405   0.332162  -0.008330   0.355460


-----------
IR SPECTRUM  
-----------

 Mode    freq (cm**-1)   T**2         TX         TY         TZ
-------------------------------------------------------------------
   6:       113.37   99.295667  ( -9.741760  -1.827477  -1.026700)
   7:       141.01   72.390746  ( -8.504627  -0.061414  -0.241453)
   8:       149.62  174.849421  ( -1.613689  11.927549   5.475308)
   9:       187.36  112.712265  ( -0.311800   9.900720   3.819789)
  10:       363.01   51.558148  (  0.094686   1.832444  -6.941998)
  11:       631.68   96.778013  ( -9.824953  -0.431607  -0.249046)
  12:      1641.21   91.270388  ( -0.347082  -4.928128   8.177009)
  13:      1662.83   39.527789  (  0.210980  -3.648576  -5.115776)
  14:      3733.79  314.941627  (  0.455216 -17.740055  -0.157625)
  15:      3833.61   11.692655  ( -0.079587  -1.616305   3.012288)
  16:      3922.86  107.192838  (  0.197152  -9.617645   3.828169)
  17:      3943.76   95.720689  (  9.772919   0.107756   0.446239)

The first frequency considered to be a vibration is 6
The total number of vibrations considered is 12


--------------------------
THERMOCHEMISTRY AT 298.15K
--------------------------

Temperature         ... 298.15 K
Pressure            ... 1.00 atm
Total Mass          ... 36.03 AMU

Throughout the following assumptions are being made:
  (1) The electronic state is orbitally nondegenerate
  (2) There are no thermally accessible electronically excited states
  (3) Hindered rotations indicated by low frequency modes are not
      treated as such but are treated as vibrations and this may
      cause some error
  (4) All equations used are the standard statistical mechanics
      equations for an ideal gas
  (5) All vibrations are strictly harmonic

freq.     113.37  E(vib)   ...       0.45 
freq.     141.01  E(vib)   ...       0.41 
freq.     149.62  E(vib)   ...       0.40 
freq.     187.36  E(vib)   ...       0.36 
freq.     363.01  E(vib)   ...       0.22 
freq.     631.68  E(vib)   ...       0.09 
freq.    1641.21  E(vib)   ...       0.00 
freq.    1662.83  E(vib)   ...       0.00 
freq.    3733.79  E(vib)   ...       0.00 
freq.    3833.61  E(vib)   ...       0.00 
freq.    3922.86  E(vib)   ...       0.00 
freq.    3943.76  E(vib)   ...       0.00 

------------
INNER ENERGY
------------

The inner energy is: U= E(el) + E(ZPE) + E(vib) + E(rot) + E(trans)
    E(el)   - is the total energy from the electronic structure calculation
              = E(kin-el) + E(nuc-el) + E(el-el) + E(nuc-nuc)
    E(ZPE)  - the the zero temperature vibrational energy from the frequency calculation
    E(vib)  - the the finite temperature correction to E(ZPE) due to population
              of excited vibrational states
    E(rot)  - is the rotational thermal energy
    E(trans)- is the translational thermal energy

Summary of contributions to the inner energy U:
Electronic energy                ...   -152.78971330 Eh
Zero point energy                ...      0.04630173 Eh      29.05 kcal/mol
Thermal vibrational correction   ...      0.00308903 Eh       1.94 kcal/mol
Thermal rotational correction    ...      0.00141627 Eh       0.89 kcal/mol
Thermal translational correction ...      0.00141627 Eh       0.89 kcal/mol
-----------------------------------------------------------------------
Total thermal energy                   -152.73749000 Eh


Summary of corrections to the electronic energy:
(perhaps to be used in another calculation)
Total thermal correction                  0.00592157 Eh       3.72 kcal/mol
Non-thermal (ZPE) correction              0.04630173 Eh      29.05 kcal/mol
-----------------------------------------------------------------------
Total correction                          0.05222330 Eh      32.77 kcal/mol


--------
ENTHALPY
--------

The enthalpy is H = U + kB*T
                kB is Boltzmann's constant
Total free energy                 ...   -152.73749000 Eh 
Thermal Enthalpy correction       ...      0.00094421 Eh       0.59 kcal/mol
-----------------------------------------------------------------------
Total Enthalpy                    ...   -152.73654579 Eh


Note: Only C1 symmetry has been detected, increase convergence thresholds 
      if your molecule has a higher symmetry. Symmetry factor of 1.0 is   
      used for the rotational entropy correction. 
 

Note: Rotational entropy computed according to Herzberg 
Infrared and Raman Spectra, Chapter V,1, Van Nostrand Reinhold, 1945 
Point Group:  C1, Symmetry Number:   1  
Rotational constants in cm-1:     7.278803     0.215739     0.215611 

Vibrational entropy computed according to the QRRHO of S. Grimme
Chem.Eur.J. 2012 18 9955


-------
ENTROPY
-------

The entropy contributions are T*S = T*(S(el)+S(vib)+S(rot)+S(trans))
     S(el)   - electronic entropy
     S(vib)  - vibrational entropy
     S(rot)  - rotational entropy
     S(trans)- translational entropy
The entropies will be listed as mutliplied by the temperature to get
units of energy

Electronic entropy                ...      0.00000000 Eh      0.00 kcal/mol
Vibrational entropy               ...      0.00578661 Eh      3.63 kcal/mol
Rotational entropy                ...      0.01002208 Eh      6.29 kcal/mol
Translational entropy             ...      0.01742549 Eh     10.93 kcal/mol
-----------------------------------------------------------------------
Final entropy term                ...      0.03323418 Eh     20.85 kcal/mol

In case the symmetry of your molecule has not been determined correctly
or in case you have a reason to use a different symmetry number we print 
out the resulting rotational entropy values for sn=1,12 :
 --------------------------------------------------------
|  sn= 1 | S(rot)=       0.01002208 Eh      6.29 kcal/mol|
|  sn= 2 | S(rot)=       0.00936763 Eh      5.88 kcal/mol|
|  sn= 3 | S(rot)=       0.00898480 Eh      5.64 kcal/mol|
|  sn= 4 | S(rot)=       0.00871317 Eh      5.47 kcal/mol|
|  sn= 5 | S(rot)=       0.00850248 Eh      5.34 kcal/mol|
|  sn= 6 | S(rot)=       0.00833034 Eh      5.23 kcal/mol|
|  sn= 7 | S(rot)=       0.00818479 Eh      5.14 kcal/mol|
|  sn= 8 | S(rot)=       0.00805871 Eh      5.06 kcal/mol|
|  sn= 9 | S(rot)=       0.00794751 Eh      4.99 kcal/mol|
|  sn=10 | S(rot)=       0.00784803 Eh      4.92 kcal/mol|
|  sn=11 | S(rot)=       0.00775804 Eh      4.87 kcal/mol|
|  sn=12 | S(rot)=       0.00767588 Eh      4.82 kcal/mol|
 --------------------------------------------------------


-------------------
GIBBS FREE ENERGY
-------------------

The Gibbs free energy is G = H - T*S

Total enthalpy                    ...   -152.73654579 Eh 
Total entropy correction          ...     -0.03323418 Eh    -20.85 kcal/mol
-----------------------------------------------------------------------
Final Gibbs free energy         ...   -152.76977997 Eh

For completeness - the Gibbs free energy minus the electronic energy
G-E(el)                           ...      0.01993332 Eh     12.51 kcal/mol


Total Time for Numerical Frequencies  :       129.003 sec

Timings for individual modules:

Sum of individual times         ...     1137.183 sec (=  18.953 min)
GTO integral calculation        ...       61.406 sec (=   1.023 min)   5.4 %
SCF iterations                  ...      312.064 sec (=   5.201 min)  27.4 %
MP2 module                      ...      757.101 sec (=  12.618 min)  66.6 %
Geometry relaxation             ...        6.611 sec (=   0.110 min)   0.6 %
                             ****ORCA TERMINATED NORMALLY****
TOTAL RUN TIME: 0 days 0 hours 21 minutes 11 seconds 900 msec
