
                                 *****************
                                 * O   R   C   A *
                                 *****************

           --- An Ab Initio, DFT and Semiempirical electronic structure package ---

                  #######################################################
                  #                        -***-                        #
                  #          Department of theory and spectroscopy      #
                  #               Directorship: Frank Neese             #
                  #        Max Planck Institute fuer Kohlenforschung    #
                  #                Kaiser Wilhelm Platz 1               #
                  #                 D-45470 Muelheim/Ruhr               #
                  #                      Germany                        #
                  #                                                     #
                  #                  All rights reserved                #
                  #                        -***-                        #
                  #######################################################


                         Program Version 4.2.0 -  RELEASE  -


 With contributions from (in alphabetic order):
   Daniel Aravena         : Magnetic Suceptibility
   Michael Atanasov       : Ab Initio Ligand Field Theory (pilot matlab implementation)
   Alexander A. Auer      : GIAO ZORA, VPT2
   Ute Becker             : Parallelization
   Giovanni Bistoni       : ED, misc. LED, open-shell LED, HFLED
   Martin Brehm           : Molecular dynamics
   Dmytro Bykov           : SCF Hessian
   Vijay G. Chilkuri      : MRCI spin determinant printing, contributions to CSF-ICE
   Dipayan Datta          : RHF DLPNO-CCSD density
   Achintya Kumar Dutta   : EOM-CC, STEOM-CC
   Dmitry Ganyushin       : Spin-Orbit,Spin-Spin,Magnetic field MRCI
   Miquel Garcia          : C-PCM Hessian, Gaussian charge scheme
   Yang Guo               : DLPNO-NEVPT2, CIM, IAO-localization
   Andreas Hansen         : Spin unrestricted coupled pair/coupled cluster methods
   Benjamin Helmich-Paris : CASSCF linear response (MC-RPA)
   Lee Huntington         : MR-EOM, pCC
   Robert Izsak           : Overlap fitted RIJCOSX, COSX-SCS-MP3, EOM
   Christian Kollmar      : KDIIS, OOCD, Brueckner-CCSD(T), CCSD density
   Simone Kossmann        : Meta GGA functionals, TD-DFT gradient, OOMP2, MP2 Hessian
   Martin Krupicka        : AUTO-CI
   Lucas Lang             : DCDCAS
   Dagmar Lenk            : GEPOL surface, SMD
   Dimitrios Liakos       : Extrapolation schemes; Compound Job, initial MDCI parallelization
   Dimitrios Manganas     : Further ROCIS development; embedding schemes
   Dimitrios Pantazis     : SARC Basis sets
   Taras Petrenko         : DFT Hessian,TD-DFT gradient, ASA, ECA, R-Raman, ABS, FL, XAS/XES, NRVS
   Peter Pinski           : DLPNO-MP2, DLPNO-MP2 Gradient
   Christoph Reimann      : Effective Core Potentials
   Marius Retegan         : Local ZFS, SOC
   Christoph Riplinger    : Optimizer, TS searches, QM/MM, DLPNO-CCSD(T), (RO)-DLPNO pert. Triples
   Tobias Risthaus        : Range-separated hybrids, TD-DFT gradient, RPA, STAB
   Michael Roemelt        : Original ROCIS implementation
   Masaaki Saitow         : Open-shell DLPNO-CCSD energy and density
   Barbara Sandhoefer     : DKH picture change effects
   Avijit Sen             : IP-ROCIS
   Kantharuban Sivalingam : CASSCF convergence, NEVPT2, FIC-MRCI
   Bernardo de Souza      : ESD, SOC TD-DFT
   Georgi Stoychev        : AutoAux, RI-MP2 NMR
   Willem Van den Heuvel  : Paramagnetic NMR
   Boris Wezisla          : Elementary symmetry handling
   Frank Wennmohs         : Technical directorship


 We gratefully acknowledge several colleagues who have allowed us to
 interface, adapt or use parts of their codes:
   Stefan Grimme, W. Hujo, H. Kruse,             : VdW corrections, initial TS optimization,
                  C. Bannwarth                     DFT functionals, gCP, sTDA/sTD-DF
   Ed Valeev, F. Pavosevic, A. Kumar             : LibInt (2-el integral package), F12 methods
   Garnet Chan, S. Sharma, J. Yang, R. Olivares  : DMRG
   Ulf Ekstrom                                   : XCFun DFT Library
   Mihaly Kallay                                 : mrcc  (arbitrary order and MRCC methods)
   Andreas Klamt, Michael Diedenhofen            : otool_cosmo (COSMO solvation model)
   Jiri Pittner, Ondrej Demel                    : Mk-CCSD
   Frank Weinhold                                : gennbo (NPA and NBO analysis)
   Christopher J. Cramer and Donald G. Truhlar   : smd solvation model
   Lars Goerigk                                  : TD-DFT with DH, B97 family of functionals
   V. Asgeirsson, H. Jonsson                     : NEB implementation
   FAccTs GmbH                                   : IRC, NEB, NEB-TS, Multilevel, MM, QM/MM, CI optimization
   S Lehtola, MJT Oliveira, MAL Marques          : LibXC Library


 Your calculation uses the libint2 library for the computation of 2-el integrals
 For citations please refer to: http://libint.valeyev.net

 Your ORCA version has been built with support for libXC version: 4.2.3
 For citations please refer to: https://tddft.org/programs/libxc/

 This ORCA versions uses:
   CBLAS   interface :  Fast vector & matrix operations
   LAPACKE interface :  Fast linear algebra routines
   SCALAPACK package :  Parallel linear algebra routines


Your calculation utilizes the atom-pairwise dispersion correction
with the Becke-Johnson damping scheme (D3BJ)
Cite in your paper:
S.Grimme, S.Ehrlich, L.Goerigk, J Comput Chem, (2011), 32, 1456–1465 
S.Grimme, J.Antony, S.Ehrlich and H.Krieg, J.Chem.Phys., 132, (2010), 154104 
   

----- Orbital basis set information -----
Your calculation utilizes the basis: aug-cc-pV(T+d)Z 
             Al - Ar: T.H. Dunning, Jr., K. A. Peterson and A. K. Wilson, J. Chem. Phys.
                      114, 9244 (2001)

----- AuxC basis set information -----
Your calculation utilizes the auxiliary basis: def2-TZVP/C
  H-La, Hf-Rn : A. Hellweg, C. Hattig, S. Hofener and W. Klopper, Theor. Chem. Acc. 117, 587 (2007).
        Ce-Lu : J. Chmela and M. E. Harding, Mol. Phys. (2018).

----- AuxJK basis set information -----
Your calculation utilizes the auxiliary basis: def2/JK
   H-Ba, Hf-Rn: F. Weigend, J. Comput. Chem. 29, 167 (2008).

================================================================================
                                        WARNINGS
                       Please study these warnings very carefully!
================================================================================


WARNING: The frozen-core approximation for MP2-gradient calculations is turned on by default.

WARNING: Geometry Optimization
  ===> : Switching off AutoStart
         For restart on a previous wavefunction, please use MOREAD

WARNING: There are different parametrizations of Gershom Martin's DSD-DFs
         for use with and without D3(BJ)!
         You are using the D3(BJ) parametrized version,
         consistent with the 2013 article (S. Kozuch and J. M. L. Martin, JCC 2013, 34, 2327)

WARNING: The frozen-core approximation is turned on by default for 
         the MP2 part of double-hybrid DFT.

INFO   : the flag for use of LIBINT has been found!

================================================================================
                                       INPUT FILE
================================================================================
NAME = 03_H2O_3.in
|  1> #
|  2> # 03_H2O_3 dsd-blyp/aug-cc-pvt(+d)z
|  3> #
|  4> ! rijk ri-dsd-blyp/2013 d3bj aug-cc-pvt(+d)z def2/jk def2-tzvp/c grid4 nofinalgrid opt xyzfile numfreq
|  5> 
|  6> *xyz 0 1
|  7> O	-1.476811	-0.647642	-0.082126
|  8> H	-0.613415	-1.087457	-0.037065
|  9> H	-2.026236	-1.086841	0.568502
| 10> O	1.305672	-0.945117	-0.091536
| 11> H	1.973931	-1.196903	0.547209
| 12> H	1.22684	0.019839	-0.021857
| 13> O	0.169678	1.599733	0.108456
| 14> H	-0.629586	1.051269	0.060063
| 15> H	0.080159	2.244313	-0.595195
| 16> *
| 17> 
| 18> %maxcore 5000
| 19> 
| 20> %pal
| 21> nprocs 24
| 22> end
| 23> 
| 24> 
| 25>                          ****END OF INPUT****
================================================================================

                       *****************************
                       * Geometry Optimization Run *
                       *****************************

Geometry optimization settings:
Update method            Update   .... BFGS
Choice of coordinates    CoordSys .... Z-matrix Internals
Initial Hessian          InHess   .... Almoef's Model

Convergence Tolerances:
Energy Change            TolE     ....  5.0000e-06 Eh
Max. Gradient            TolMAXG  ....  3.0000e-04 Eh/bohr
RMS Gradient             TolRMSG  ....  1.0000e-04 Eh/bohr
Max. Displacement        TolMAXD  ....  4.0000e-03 bohr
RMS Displacement         TolRMSD  ....  2.0000e-03 bohr
Strict Convergence                ....  False
------------------------------------------------------------------------------
                        ORCA OPTIMIZATION COORDINATE SETUP
------------------------------------------------------------------------------

The optimization will be done in new redundant internal coordinates
Making redundant internal coordinates   ...  (new redundants) done
Evaluating the initial hessian          ...  (Almloef) done
Evaluating the coordinates              ...  done
Calculating the B-matrix                .... done
Calculating the G-matrix                .... done
Diagonalizing the G-matrix              .... done
The first mode is                       ....   69
The number of degrees of freedom        ....   21

    -----------------------------------------------------------------
                    Redundant Internal Coordinates


    -----------------------------------------------------------------
         Definition                    Initial Value    Approx d2E/dq
    -----------------------------------------------------------------
      1. B(H   1,O   0)                  0.9700         0.501182   
      2. B(H   2,O   0)                  0.9582         0.523473   
      3. B(O   3,H   1)                  1.9251         0.015003   
      4. B(H   4,O   3)                  0.9581         0.523592   
      5. B(H   5,H   1)                  2.1478         0.001415   
      6. B(H   5,O   3)                  0.9707         0.499960   
      7. B(O   6,H   5)                  1.9054         0.016129   
      8. B(H   7,O   0)                  1.9038         0.016228   
      9. B(H   7,H   5)                  2.1253         0.001537   
     10. B(H   7,O   6)                  0.9706         0.500180   
     11. B(H   7,H   1)                  2.1410         0.001451   
     12. B(H   8,O   6)                  0.9584         0.522930   
     13. A(H   1,O   0,H   2)          105.7245         0.320256   
     14. A(H   1,O   0,H   7)           90.2888         0.194349   
     15. A(H   2,O   0,H   7)          127.8445         0.195392   
     16. A(O   0,H   1,O   3)          148.4799         0.192494   
     17. A(O   3,H   1,H   5)           26.8674         0.111178   
     18. A(O   0,H   1,H   7)           62.7710         0.138348   
     19. A(O   3,H   1,H   7)           86.2705         0.111303   
     20. A(H   5,H   1,H   7)           59.4119         0.099575   
     21. A(O   0,H   1,H   5)          121.9527         0.138071   
     22. A(H   1,O   3,H   4)          131.0713         0.193524   
     23. A(H   1,O   3,H   5)           89.4564         0.192437   
     24. A(H   4,O   3,H   5)          105.6664         0.320141   
     25. A(H   1,H   5,O   3)           63.6762         0.138044   
     26. A(H   1,H   5,H   7)           60.1355         0.099714   
     27. A(O   3,H   5,H   7)          123.7906         0.138969   
     28. A(H   1,H   5,O   6)           87.2821         0.111545   
     29. A(O   6,H   5,H   7)           27.1690         0.111970   
     30. A(O   3,H   5,O   6)          150.9551         0.194146   
     31. A(H   7,O   6,H   8)          105.4575         0.320097   
     32. A(H   5,O   6,H   8)          124.0032         0.195220   
     33. A(H   5,O   6,H   7)           89.1365         0.194156   
     34. A(H   1,H   7,H   5)           60.4525         0.099774   
     35. A(O   0,H   7,H   5)           87.2922         0.112001   
     36. A(O   0,H   7,O   6)          150.9865         0.194302   
     37. A(H   5,H   7,O   6)           63.6945         0.138974   
     38. A(O   0,H   7,H   1)           26.9402         0.111703   
     39. A(H   1,H   7,O   6)          124.0937         0.138326   
     40. D(O   3,H   1,O   0,H   7)    -11.7716         0.380639   
     41. D(H   7,H   1,O   0,H   2)   -129.7025         0.380639   
     42. D(H   5,H   1,O   0,H   7)     -5.4848         0.380639   
     43. D(H   5,H   1,O   0,H   2)   -135.1873         0.380639   
     44. D(O   3,H   1,O   0,H   2)   -141.4741         0.380639   
     45. D(H   5,O   3,H   1,O   0)     11.8642         0.001643   
     46. D(H   4,O   3,H   1,O   0)    122.3477         0.001643   
     47. D(H   4,O   3,H   1,H   5)    110.4835         0.001643   
     48. D(H   5,O   3,H   1,H   7)      1.3903         0.001643   
     49. D(H   4,O   3,H   1,H   7)    111.8738         0.001643   
     50. D(O   6,H   5,H   1,H   7)      1.1646         0.001523   
     51. D(O   6,H   5,H   1,O   0)      6.8305         0.001523   
     52. D(O   3,H   5,H   1,H   7)   -178.3883         0.001523   
     53. D(O   6,H   5,H   1,O   3)    179.5529         0.001523   
     54. D(O   6,H   5,O   3,H   1)     -0.9199         0.378251   
     55. D(H   7,H   5,O   3,H   4)   -134.5033         0.378251   
     56. D(O   6,H   5,O   3,H   4)   -133.7414         0.378251   
     57. D(H   1,H   5,O   3,H   4)   -132.8215         0.378251   
     58. D(O   3,H   5,H   1,O   0)   -172.7224         0.001523   
     59. D(H   7,H   5,O   3,H   1)     -1.6818         0.378251   
     60. D(H   7,H   5,H   1,O   3)    178.3883         0.001523   
     61. D(H   7,H   5,H   1,O   0)      5.6659         0.001523   
     62. D(H   8,O   6,H   5,H   7)   -108.1417         0.001665   
     63. D(H   8,O   6,H   5,H   1)   -110.3539         0.001665   
     64. D(H   7,O   6,H   5,H   1)     -2.2122         0.001665   
     65. D(H   8,O   6,H   5,O   3)   -109.5285         0.001665   
     66. D(H   7,O   6,H   5,O   3)     -1.3868         0.001665   
     67. D(H   5,H   7,O   0,H   1)      4.7063         0.001667   
     68. D(H   1,H   7,O   0,H   2)    110.3109         0.001667   
     69. D(O   6,H   7,O   0,H   2)    114.8337         0.001667   
     70. D(O   6,H   7,O   0,H   1)      4.5228         0.001667   
     71. D(H   5,H   7,O   6,H   8)    125.1784         0.378680   
     72. D(H   1,H   7,O   6,H   5)      2.6771         0.378680   
     73. D(H   1,H   7,O   6,H   8)    127.8555         0.378680   
     74. D(O   0,H   7,O   6,H   5)      0.2045         0.378680   
     75. D(H   1,H   7,H   5,O   6)   -177.4517         0.001528   
     76. D(H   1,H   7,H   5,O   3)      1.7382         0.001528   
     77. D(O   0,H   7,H   5,O   6)   -179.9007         0.001528   
     78. D(O   0,H   7,H   5,H   1)     -2.4490         0.001528   
     79. D(O   0,H   7,H   5,O   3)     -0.7108         0.001528   
     80. D(O   6,H   7,H   5,H   1)    177.4517         0.001528   
     81. D(O   6,H   7,H   5,O   3)    179.1899         0.001528   
     82. D(H   5,H   7,H   1,O   3)     -0.7298         0.001525   
     83. D(H   5,H   7,H   1,O   0)   -174.5942         0.001525   
     84. D(O   0,H   7,H   1,H   5)    174.5942         0.001525   
     85. D(O   0,H   7,O   6,H   8)    125.3829         0.378680   
     86. D(O   0,H   7,H   1,O   3)    173.8644         0.001525   
     87. D(O   6,H   7,H   1,H   5)     -2.7587         0.001525   
     88. D(O   6,H   7,H   1,O   3)     -3.4885         0.001525   
     89. D(O   6,H   7,H   1,O   0)   -177.3529         0.001525   
     90. D(H   5,H   7,O   0,H   2)    115.0172         0.001667   
    -----------------------------------------------------------------

Number of atoms                         .... 9
Number of degrees of freedom            .... 90

         *************************************************************
         *                GEOMETRY OPTIMIZATION CYCLE   1            *
         *************************************************************
---------------------------------
CARTESIAN COORDINATES (ANGSTROEM)
---------------------------------
  O     -1.476811   -0.647642   -0.082126
  H     -0.613415   -1.087457   -0.037065
  H     -2.026236   -1.086841    0.568502
  O      1.305672   -0.945117   -0.091536
  H      1.973931   -1.196903    0.547209
  H      1.226840    0.019839   -0.021857
  O      0.169678    1.599733    0.108456
  H     -0.629586    1.051269    0.060063
  H      0.080159    2.244313   -0.595195

----------------------------
CARTESIAN COORDINATES (A.U.)
----------------------------
  NO LB      ZA    FRAG     MASS         X           Y           Z
   0 O     8.0000    0    15.999   -2.790768   -1.223866   -0.155196
   1 H     1.0000    0     1.008   -1.159186   -2.054996   -0.070043
   2 H     1.0000    0     1.008   -3.829031   -2.053832    1.074313
   3 O     8.0000    0    15.999    2.467363   -1.786012   -0.172978
   4 H     1.0000    0     1.008    3.730189   -2.261819    1.034075
   5 H     1.0000    0     1.008    2.318392    0.037490   -0.041304
   6 O     8.0000    0    15.999    0.320645    3.023057    0.204952
   7 H     1.0000    0     1.008   -1.189745    1.986611    0.113503
   8 H     1.0000    0     1.008    0.151479    4.241137   -1.124756

--------------------------------
INTERNAL COORDINATES (ANGSTROEM)
--------------------------------
 O      0   0   0     0.000000000000     0.00000000     0.00000000
 H      1   0   0     0.970010505491     0.00000000     0.00000000
 H      1   2   0     0.958165114482   105.72451778     0.00000000
 O      2   1   3     1.925129262935   148.47990843   218.52590542
 H      4   2   1     0.958103050774   131.07133552   122.34770223
 H      4   2   1     0.970674883368    89.45639618    11.86423463
 O      6   4   2     1.905423318701   150.95508604   359.08013207
 H      7   6   4     0.970555296437    89.13650572   358.61319453
 H      7   6   4     0.958447576846   124.00318504   250.47153616

---------------------------
INTERNAL COORDINATES (A.U.)
---------------------------
 O      0   0   0     0.000000000000     0.00000000     0.00000000
 H      1   0   0     1.833054202404     0.00000000     0.00000000
 H      1   2   0     1.810669657448   105.72451778     0.00000000
 O      2   1   3     3.637967079345   148.47990843   218.52590542
 H      4   2   1     1.810552374037   131.07133552   122.34770223
 H      4   2   1     1.834309694641    89.45639618    11.86423463
 O      6   4   2     3.600728241532   150.95508604   359.08013207
 H      7   6   4     1.834083708092    89.13650572   358.61319453
 H      7   6   4     1.811203433959   124.00318504   250.47153616

---------------------
BASIS SET INFORMATION
---------------------
There are 2 groups of distinct atoms

 Group   1 Type O   : 19s6p3d2f contracted to 5s4p3d2f pattern {88111/3111/111/11}
 Group   2 Type H   : 6s3p2d contracted to 4s3p2d pattern {3111/111/11}

Atom   0O    basis set group =>   1
Atom   1H    basis set group =>   2
Atom   2H    basis set group =>   2
Atom   3O    basis set group =>   1
Atom   4H    basis set group =>   2
Atom   5H    basis set group =>   2
Atom   6O    basis set group =>   1
Atom   7H    basis set group =>   2
Atom   8H    basis set group =>   2
---------------------------------
AUXILIARY/C BASIS SET INFORMATION
---------------------------------
There are 2 groups of distinct atoms

 Group   1 Type O   : 8s6p5d3f1g contracted to 8s6p4d3f1g pattern {11111111/111111/2111/111/1}
 Group   2 Type H   : 4s3p2d contracted to 4s2p1d pattern {1111/21/2}

Atom   0O    basis set group =>   1
Atom   1H    basis set group =>   2
Atom   2H    basis set group =>   2
Atom   3O    basis set group =>   1
Atom   4H    basis set group =>   2
Atom   5H    basis set group =>   2
Atom   6O    basis set group =>   1
Atom   7H    basis set group =>   2
Atom   8H    basis set group =>   2
----------------------------------
AUXILIARY/JK BASIS SET INFORMATION
----------------------------------
There are 2 groups of distinct atoms

 Group   1 Type O   : 14s10p6d2f1g contracted to 10s8p4d2f1g pattern {5111111111/31111111/3111/11/1}
 Group   2 Type H   : 4s2p2d contracted to 2s2p2d pattern {31/11/11}

Atom   0O    basis set group =>   1
Atom   1H    basis set group =>   2
Atom   2H    basis set group =>   2
Atom   3O    basis set group =>   1
Atom   4H    basis set group =>   2
Atom   5H    basis set group =>   2
Atom   6O    basis set group =>   1
Atom   7H    basis set group =>   2
Atom   8H    basis set group =>   2


           ************************************************************
           *        Program running with 24 parallel MPI-processes    *
           *              working on a common directory               *
           ************************************************************
------------------------------------------------------------------------------
                           ORCA GTO INTEGRAL CALCULATION
                           -- RI-GTO INTEGRALS CHOSEN --
------------------------------------------------------------------------------

                         BASIS SET STATISTICS AND STARTUP INFO

Gaussian basis set:
 # of primitive gaussian shells          ...  156
 # of primitive gaussian functions       ...  348
 # of contracted shells                  ...   96
 # of contracted basis functions         ...  276
 Highest angular momentum                ...    3
 Maximum contraction depth               ...    8
Auxiliary gaussian basis set:
 # of primitive gaussian shells          ...  147
 # of primitive gaussian functions       ...  411
 # of contracted shells                  ...  111
 # of contracted aux-basis functions     ...  339
 Highest angular momentum                ...    4
 Maximum contraction depth               ...    5
Ratio of auxiliary to basis functions    ...  1.23
Integral package used                  ... LIBINT
 One Electron integrals                  ... done
 Ordering auxiliary basis shells         ... done
 Integral threshhold             Thresh  ...  2.500e-11
 Primitive cut-off               TCut    ...  2.500e-12
 Pre-screening matrix                    ... done
 Shell pair data                         ... 
 Ordering of the shell pairs             ... done (   0.001 sec) 4594 of 4656 pairs
 Determination of significant pairs      ... done (   0.000 sec)
 Creation of shell pair data             ... done (   0.001 sec)
 Storage of shell pair data              ... done (   0.014 sec)
 Shell pair data done in (   0.015 sec)
 Computing two index integrals           ... done
 Cholesky decomposition of the V-matrix  ... done


Timings:
 Total evaluation time                   ...   0.279 sec (  0.005 min)
 One electron matrix time                ...   0.032 sec (  0.001 min) = 11.5%
 Schwartz matrix evaluation time         ...   0.124 sec (  0.002 min) = 44.5%
 Two index repulsion integral time       ...   0.002 sec (  0.000 min) =  0.7%
 Cholesky decomposition of V             ...   0.080 sec (  0.001 min) = 28.6%
 Three index repulsion integral time     ...   0.000 sec (  0.000 min) =  0.0%



           ************************************************************
           *        Program running with 24 parallel MPI-processes    *
           *              working on a common directory               *
           ************************************************************
-------------------------------------------------------------------------------
                                 ORCA SCF
-------------------------------------------------------------------------------

------------
SCF SETTINGS
------------
Hamiltonian:
 Density Functional     Method          .... DFT(GTOs)
 Exchange Functional    Exchange        .... B88
   X-Alpha parameter    XAlpha          ....  0.666667
   Becke's b parameter  XBeta           ....  0.004200
 Correlation Functional Correlation     .... LYP
 LDA part of GGA corr.  LDAOpt          .... VWN-5
 Gradients option       PostSCFGGA      .... off
 Hybrid DFT is turned on
   Fraction HF Exchange ScalHFX         ....  0.710000
   Scaling of DF-GGA-X  ScalDFX         ....  0.290000
   Scaling of DF-GGA-C  ScalDFC         ....  0.540000
   Scaling of DF-LDA-C  ScalLDAC        ....  0.540000
   Perturbative correction              ....  1.000000
   Density functional embedding theory  .... OFF
 RI-approximation to the Coulomb term is turned on
   Number of auxiliary basis functions  .... 339
   RI-JK (J+K treated both via RI)      .... on


General Settings:
 Integral files         IntName         .... 03_H2O_3
 Hartree-Fock type      HFTyp           .... RHF
 Total Charge           Charge          ....    0
 Multiplicity           Mult            ....    1
 Number of Electrons    NEL             ....   30
 Basis Dimension        Dim             ....  276
 Nuclear Repulsion      ENuc            ....     84.5280316478 Eh

Convergence Acceleration:
 DIIS                   CNVDIIS         .... on
   Start iteration      DIISMaxIt       ....    12
   Startup error        DIISStart       ....  0.200000
   # of expansion vecs  DIISMaxEq       ....     5
   Bias factor          DIISBfac        ....   1.050
   Max. coefficient     DIISMaxC        ....  10.000
 Newton-Raphson         CNVNR           .... off
 SOSCF                  CNVSOSCF        .... on
   Start iteration      SOSCFMaxIt      ....   150
   Startup grad/error   SOSCFStart      ....  0.003300
 Level Shifting         CNVShift        .... on
   Level shift para.    LevelShift      ....    0.2500
   Turn off err/grad.   ShiftErr        ....    0.0010
 Zerner damping         CNVZerner       .... off
 Static damping         CNVDamp         .... on
   Fraction old density DampFac         ....    0.7000
   Max. Damping (<1)    DampMax         ....    0.9800
   Min. Damping (>=0)   DampMin         ....    0.0000
   Turn off err/grad.   DampErr         ....    0.1000
 Fernandez-Rico         CNVRico         .... off

SCF Procedure:
 Maximum # iterations   MaxIter         ....   125
 SCF integral mode      SCFMode         .... Direct
   Integral package                     .... LIBINT
 Reset frequency        DirectResetFreq ....    20
 Integral Threshold     Thresh          ....  2.500e-11 Eh
 Primitive CutOff       TCut            ....  2.500e-12 Eh

Convergence Tolerance:
 Convergence Check Mode ConvCheckMode   .... Total+1el-Energy
 Convergence forced     ConvForced      .... 0
 Energy Change          TolE            ....  1.000e-08 Eh
 1-El. energy change                    ....  1.000e-05 Eh
 Orbital Gradient       TolG            ....  1.000e-05
 Orbital Rotation angle TolX            ....  1.000e-05
 DIIS Error             TolErr          ....  5.000e-07


Diagonalization of the overlap matrix:
Smallest eigenvalue                        ... 1.498e-04
Time for diagonalization                   ...    0.034 sec
Threshold for overlap eigenvalues          ... 1.000e-08
Number of eigenvalues below threshold      ... 0
Time for construction of square roots      ...    0.009 sec
Total time needed                          ...    0.043 sec

-------------------
DFT GRID GENERATION
-------------------

General Integration Accuracy     IntAcc      ...  4.670
Radial Grid Type                 RadialGrid  ... Gauss-Chebyshev
Angular Grid (max. acc.)         AngularGrid ... Lebedev-302
Angular grid pruning method      GridPruning ... 3 (G Style)
Weight generation scheme         WeightScheme... Becke
Basis function cutoff            BFCut       ...    1.0000e-11
Integration weight cutoff        WCut        ...    1.0000e-14
Grids for H and He will be reduced by one unit

# of grid points (after initial pruning)     ...  39000 (   0.0 sec)
# of grid points (after weights+screening)   ...  37273 (   0.0 sec)
nearest neighbour list constructed           ...    0.0 sec
Grid point re-assignment to atoms done       ...    0.0 sec
Grid point division into batches done        ...    0.1 sec
Reduced shell lists constructed in    0.1 sec

Total number of grid points                  ...    37273
Total number of batches                      ...      587
Average number of points per batch           ...       63
Average number of grid points per atom       ...     4141
Average number of shells per batch           ...    67.88 (70.71%)
Average number of basis functions per batch  ...   188.81 (68.41%)
Average number of large shells per batch     ...    56.00 (82.49%)
Average number of large basis fcns per batch ...   152.69 (80.87%)
Average number of aux-shells per batch       ...    67.88 (61.16%)
Average number of aux functions per batch    ...   188.81 (55.70%)
Maximum spatial batch extension              ...   9.52, 16.88, 10.93 au
Average spatial batch extension              ...   0.14,  0.16,  0.15 au

Time for grid setup =    0.187 sec

------------------------------
INITIAL GUESS: MODEL POTENTIAL
------------------------------
Loading Hartree-Fock densities                     ... done
Calculating cut-offs                               ... done
Setting up the integral package                    ... done
Initializing the effective Hamiltonian             ... done
Starting the Coulomb interaction                   ... done (   0.0 sec)
Reading the grid                                   ... done
Mapping shells                                     ... done
Starting the XC term evaluation                    ... done (   0.0 sec)
  promolecular density results
     # of electrons  =     29.996930767
     EX              =    -26.367045944
     EC              =     -0.118747925
     EX+EC           =    -26.485793869
Transforming the Hamiltonian                       ... done (   0.0 sec)
Diagonalizing the Hamiltonian                      ... done (   0.0 sec)
Back transforming the eigenvectors                 ... done (   0.0 sec)
Now organizing SCF variables                       ... done
                      ------------------
                      INITIAL GUESS DONE (   0.3 sec)
                      ------------------
--------------
SCF ITERATIONS
--------------
ITER       Energy         Delta-E        Max-DP      RMS-DP      [F,P]     Damp
  0   -228.5452476075   0.000000000000 0.03451978  0.00070280  0.3465060 0.7000
  1   -228.3123226323   0.232924975165 0.03070784  0.00072175  0.2813327 0.7000
                               ***Turning on DIIS***
  2   -228.3757609002  -0.063438267866 0.01338703  0.00037151  0.1275325 0.7000
  3   -228.5553398045  -0.179578904290 0.02141442  0.00029787  0.0416253 0.0000
  4   -228.7745180655  -0.219178261034 0.00743448  0.00021791  0.0694896 0.0000
  5   -228.7838074717  -0.009289406196 0.00611640  0.00014245  0.0370292 0.0000
  6   -228.7866937201  -0.002886248364 0.00370171  0.00008322  0.0168870 0.0000
  7   -228.7873915628  -0.000697842714 0.00131333  0.00003148  0.0053833 0.0000
                      *** Initiating the SOSCF procedure ***
                           *** Shutting down DIIS ***
                      *** Re-Reading the Fockian *** 
                      *** Removing any level shift *** 
ITER      Energy       Delta-E        Grad      Rot      Max-DP    RMS-DP
  8   -228.78747236  -0.0000807926  0.000202  0.000202  0.000279  0.000009
  9   -228.78747633  -0.0000039792  0.000023  0.000041  0.000085  0.000002
 10   -228.78747640  -0.0000000677  0.000014  0.000030  0.000040  0.000001
 11   -228.78747641  -0.0000000111  0.000006  0.000009  0.000015  0.000000
                  ***Gradient check signals convergence***
              ***Rediagonalizing the Fockian in SOSCF/NRSCF***

               *****************************************************
               *                     SUCCESS                       *
               *           SCF CONVERGED AFTER  12 CYCLES          *
               *****************************************************


----------------
TOTAL SCF ENERGY
----------------

Total Energy       :         -228.78747642 Eh           -6225.62374 eV

Components:
Nuclear Repulsion  :           84.52803165 Eh            2300.12468 eV
Electronic Energy  :         -313.31550806 Eh           -8525.74842 eV
One Electron Energy:         -483.15422483 Eh          -13147.29485 eV
Two Electron Energy:          169.83871677 Eh            4621.54644 eV

Virial components:
Potential Energy   :         -456.82987160 Eh          -12430.97278 eV
Kinetic Energy     :          228.04239519 Eh            6205.34905 eV
Virial Ratio       :            2.00326729


DFT components:
N(Alpha)           :       14.999974477283 electrons
N(Beta)            :       14.999974477283 electrons
N(Total)           :       29.999948954566 electrons
E(X)               :       -7.816179872735 Eh       
E(C)               :       -0.558886304176 Eh       
E(XC)              :       -8.375066176911 Eh       
DFET-embed. en.    :        0.000000000000 Eh       

---------------
SCF CONVERGENCE
---------------

  Last Energy change         ...   -2.0456e-09  Tolerance :   1.0000e-08
  Last MAX-Density change    ...    4.4062e-06  Tolerance :   1.0000e-07
  Last RMS-Density change    ...    6.2039e-08  Tolerance :   5.0000e-09
  Last Orbital Gradient      ...    5.8113e-07  Tolerance :   1.0000e-05
  Last Orbital Rotation      ...    6.5023e-07  Tolerance :   1.0000e-05

             **** THE GBW FILE WAS UPDATED (03_H2O_3.gbw) ****
             **** DENSITY FILE WAS UPDATED (03_H2O_3.scfp) ****
             **** ENERGY FILE WAS UPDATED (03_H2O_3.en.tmp) ****
             **** THE GBW FILE WAS UPDATED (03_H2O_3.gbw) ****
             **** DENSITY FILE WAS UPDATED (03_H2O_3.scfp) ****
----------------
ORBITAL ENERGIES
----------------

  NO   OCC          E(Eh)            E(eV) 
   0   2.0000     -20.052985      -545.6695 
   1   2.0000     -20.051353      -545.6251 
   2   2.0000     -20.050737      -545.6083 
   3   2.0000      -1.244859       -33.8743 
   4   2.0000      -1.227387       -33.3989 
   5   2.0000      -1.225890       -33.3582 
   6   2.0000      -0.679376       -18.4868 
   7   2.0000      -0.648250       -17.6398 
   8   2.0000      -0.646420       -17.5900 
   9   2.0000      -0.535812       -14.5802 
  10   2.0000      -0.530600       -14.4384 
  11   2.0000      -0.500343       -13.6150 
  12   2.0000      -0.451481       -12.2854 
  13   2.0000      -0.443309       -12.0631 
  14   2.0000      -0.438428       -11.9302 
  15   0.0000       0.011668         0.3175 
  16   0.0000       0.030209         0.8220 
  17   0.0000       0.031212         0.8493 
  18   0.0000       0.054878         1.4933 
  19   0.0000       0.061577         1.6756 
  20   0.0000       0.071814         1.9542 
  21   0.0000       0.106014         2.8848 
  22   0.0000       0.122054         3.3213 
  23   0.0000       0.131121         3.5680 
  24   0.0000       0.139973         3.8089 
  25   0.0000       0.141796         3.8585 
  26   0.0000       0.151643         4.1264 
  27   0.0000       0.176439         4.8011 
  28   0.0000       0.186739         5.0814 
  29   0.0000       0.191835         5.2201 
  30   0.0000       0.203526         5.5382 
  31   0.0000       0.210711         5.7337 
  32   0.0000       0.214071         5.8252 
  33   0.0000       0.222031         6.0418 
  34   0.0000       0.238085         6.4786 
  35   0.0000       0.239246         6.5102 
  36   0.0000       0.255532         6.9534 
  37   0.0000       0.291967         7.9448 
  38   0.0000       0.300391         8.1741 
  39   0.0000       0.329363         8.9624 
  40   0.0000       0.333153         9.0655 
  41   0.0000       0.335809         9.1378 
  42   0.0000       0.357283         9.7222 
  43   0.0000       0.360624         9.8131 
  44   0.0000       0.379512        10.3270 
  45   0.0000       0.381614        10.3842 
  46   0.0000       0.394907        10.7460 
  47   0.0000       0.402828        10.9615 
  48   0.0000       0.408259        11.1093 
  49   0.0000       0.420214        11.4346 
  50   0.0000       0.431991        11.7551 
  51   0.0000       0.433565        11.7979 
  52   0.0000       0.449964        12.2441 
  53   0.0000       0.453817        12.3490 
  54   0.0000       0.501592        13.6490 
  55   0.0000       0.515669        14.0321 
  56   0.0000       0.520221        14.1559 
  57   0.0000       0.552943        15.0463 
  58   0.0000       0.599556        16.3147 
  59   0.0000       0.604171        16.4403 
  60   0.0000       0.622595        16.9417 
  61   0.0000       0.662716        18.0334 
  62   0.0000       0.677953        18.4480 
  63   0.0000       0.689412        18.7598 
  64   0.0000       0.709424        19.3044 
  65   0.0000       0.712248        19.3813 
  66   0.0000       0.724586        19.7170 
  67   0.0000       0.743112        20.2211 
  68   0.0000       0.750161        20.4129 
  69   0.0000       0.775659        21.1067 
  70   0.0000       0.783375        21.3167 
  71   0.0000       0.790013        21.4973 
  72   0.0000       0.809457        22.0264 
  73   0.0000       0.829206        22.5639 
  74   0.0000       0.863061        23.4851 
  75   0.0000       0.871383        23.7115 
  76   0.0000       0.874425        23.7943 
  77   0.0000       0.889277        24.1985 
  78   0.0000       0.903460        24.5844 
  79   0.0000       0.905042        24.6274 
  80   0.0000       0.920139        25.0383 
  81   0.0000       0.922475        25.1018 
  82   0.0000       0.940022        25.5793 
  83   0.0000       0.945689        25.7335 
  84   0.0000       0.959479        26.1088 
  85   0.0000       0.968039        26.3417 
  86   0.0000       0.973100        26.4794 
  87   0.0000       0.991398        26.9773 
  88   0.0000       0.993651        27.0386 
  89   0.0000       1.002249        27.2726 
  90   0.0000       1.028311        27.9818 
  91   0.0000       1.071648        29.1610 
  92   0.0000       1.082834        29.4654 
  93   0.0000       1.093087        29.7444 
  94   0.0000       1.105563        30.0839 
  95   0.0000       1.126235        30.6464 
  96   0.0000       1.141389        31.0588 
  97   0.0000       1.149021        31.2664 
  98   0.0000       1.150977        31.3197 
  99   0.0000       1.182656        32.1817 
 100   0.0000       1.199952        32.6524 
 101   0.0000       1.235879        33.6300 
 102   0.0000       1.245306        33.8865 
 103   0.0000       1.261228        34.3198 
 104   0.0000       1.272864        34.6364 
 105   0.0000       1.283043        34.9134 
 106   0.0000       1.313087        35.7309 
 107   0.0000       1.327611        36.1261 
 108   0.0000       1.335002        36.3273 
 109   0.0000       1.370501        37.2932 
 110   0.0000       1.390721        37.8434 
 111   0.0000       1.415916        38.5290 
 112   0.0000       1.438684        39.1486 
 113   0.0000       1.464248        39.8442 
 114   0.0000       1.486833        40.4588 
 115   0.0000       1.511712        41.1358 
 116   0.0000       1.522554        41.4308 
 117   0.0000       1.547831        42.1186 
 118   0.0000       1.581537        43.0358 
 119   0.0000       1.598333        43.4928 
 120   0.0000       1.624963        44.2175 
 121   0.0000       1.666237        45.3406 
 122   0.0000       1.683608        45.8133 
 123   0.0000       1.704762        46.3889 
 124   0.0000       1.739454        47.3329 
 125   0.0000       1.772749        48.2390 
 126   0.0000       1.800934        49.0059 
 127   0.0000       1.853679        50.4412 
 128   0.0000       1.883449        51.2513 
 129   0.0000       1.897439        51.6319 
 130   0.0000       1.928576        52.4792 
 131   0.0000       1.953751        53.1643 
 132   0.0000       2.010469        54.7076 
 133   0.0000       2.019923        54.9649 
 134   0.0000       2.040075        55.5133 
 135   0.0000       2.176243        59.2186 
 136   0.0000       2.246392        61.1274 
 137   0.0000       2.271501        61.8107 
 138   0.0000       2.288290        62.2675 
 139   0.0000       2.301456        62.6258 
 140   0.0000       2.324042        63.2404 
 141   0.0000       2.332562        63.4722 
 142   0.0000       2.347819        63.8874 
 143   0.0000       2.380504        64.7768 
 144   0.0000       2.389698        65.0270 
 145   0.0000       2.395035        65.1722 
 146   0.0000       2.403776        65.4101 
 147   0.0000       2.422420        65.9174 
 148   0.0000       2.435451        66.2720 
 149   0.0000       2.440471        66.4086 
 150   0.0000       2.474481        67.3341 
 151   0.0000       2.484172        67.5978 
 152   0.0000       2.518585        68.5342 
 153   0.0000       2.535893        69.0052 
 154   0.0000       2.582782        70.2811 
 155   0.0000       2.610466        71.0344 
 156   0.0000       2.682244        72.9876 
 157   0.0000       2.693047        73.2815 
 158   0.0000       2.702732        73.5451 
 159   0.0000       2.715830        73.9015 
 160   0.0000       2.723927        74.1218 
 161   0.0000       2.754978        74.9668 
 162   0.0000       2.782634        75.7193 
 163   0.0000       2.803798        76.2952 
 164   0.0000       2.818872        76.7054 
 165   0.0000       2.832072        77.0646 
 166   0.0000       2.838749        77.2463 
 167   0.0000       2.858717        77.7896 
 168   0.0000       2.908998        79.1579 
 169   0.0000       2.961315        80.5815 
 170   0.0000       2.968005        80.7635 
 171   0.0000       2.976857        81.0044 
 172   0.0000       3.109992        84.6272 
 173   0.0000       3.134429        85.2921 
 174   0.0000       3.726572       101.4052 
 175   0.0000       3.743030       101.8530 
 176   0.0000       3.771919       102.6391 
 177   0.0000       3.915033       106.5335 
 178   0.0000       3.923762       106.7710 
 179   0.0000       3.940547       107.2277 
 180   0.0000       3.996411       108.7479 
 181   0.0000       4.003386       108.9377 
 182   0.0000       4.094041       111.4045 
 183   0.0000       4.127862       112.3248 
 184   0.0000       4.153879       113.0328 
 185   0.0000       4.157038       113.1187 
 186   0.0000       4.169382       113.4547 
 187   0.0000       4.186918       113.9318 
 188   0.0000       4.207474       114.4912 
 189   0.0000       4.218106       114.7805 
 190   0.0000       4.259859       115.9167 
 191   0.0000       4.284979       116.6002 
 192   0.0000       4.320249       117.5599 
 193   0.0000       4.347635       118.3052 
 194   0.0000       4.370368       118.9238 
 195   0.0000       4.392038       119.5134 
 196   0.0000       4.410975       120.0287 
 197   0.0000       4.435087       120.6849 
 198   0.0000       4.453918       121.1973 
 199   0.0000       4.485936       122.0685 
 200   0.0000       4.514858       122.8555 
 201   0.0000       4.581048       124.6567 
 202   0.0000       4.590462       124.9128 
 203   0.0000       4.614415       125.5646 
 204   0.0000       4.628478       125.9473 
 205   0.0000       4.639329       126.2426 
 206   0.0000       4.655675       126.6873 
 207   0.0000       4.741604       129.0256 
 208   0.0000       4.773146       129.8839 
 209   0.0000       4.809783       130.8808 
 210   0.0000       4.866328       132.4195 
 211   0.0000       4.923729       133.9815 
 212   0.0000       4.936240       134.3219 
 213   0.0000       5.057819       137.6303 
 214   0.0000       5.077812       138.1743 
 215   0.0000       5.084117       138.3459 
 216   0.0000       5.113207       139.1374 
 217   0.0000       5.147976       140.0835 
 218   0.0000       5.153867       140.2438 
 219   0.0000       5.217391       141.9724 
 220   0.0000       5.239736       142.5805 
 221   0.0000       5.250365       142.8697 
 222   0.0000       5.257423       143.0618 
 223   0.0000       5.370303       146.1334 
 224   0.0000       5.381753       146.4449 
 225   0.0000       5.463972       148.6822 
 226   0.0000       5.474891       148.9794 
 227   0.0000       5.557025       151.2143 
 228   0.0000       5.662459       154.0833 
 229   0.0000       5.676070       154.4537 
 230   0.0000       5.690891       154.8570 
 231   0.0000       6.152846       167.4275 
 232   0.0000       6.169449       167.8792 
 233   0.0000       6.207876       168.9249 
 234   0.0000       6.430757       174.9898 
 235   0.0000       6.445633       175.3946 
 236   0.0000       6.480508       176.3436 
 237   0.0000       6.667887       181.4424 
 238   0.0000       6.694283       182.1607 
 239   0.0000       6.700025       182.3170 
 240   0.0000       6.807201       185.2334 
 241   0.0000       6.814002       185.4184 
 242   0.0000       6.820639       185.5990 
 243   0.0000       6.998325       190.4341 
 244   0.0000       7.031062       191.3249 
 245   0.0000       7.043219       191.6557 
 246   0.0000       7.138202       194.2403 
 247   0.0000       7.160606       194.8500 
 248   0.0000       7.166729       195.0166 
 249   0.0000       7.202266       195.9836 
 250   0.0000       7.207396       196.1232 
 251   0.0000       7.222751       196.5410 
 252   0.0000       7.231013       196.7659 
 253   0.0000       7.236772       196.9226 
 254   0.0000       7.248286       197.2359 
 255   0.0000       7.290687       198.3897 
 256   0.0000       7.309264       198.8952 
 257   0.0000       7.323337       199.2781 
 258   0.0000       7.333148       199.5451 
 259   0.0000       7.390147       201.0961 
 260   0.0000       7.408140       201.5857 
 261   0.0000       7.635508       207.7727 
 262   0.0000       7.640458       207.9074 
 263   0.0000       7.720985       210.0987 
 264   0.0000       7.806858       212.4354 
 265   0.0000       7.814963       212.6559 
 266   0.0000       7.864982       214.0170 
 267   0.0000       7.934229       215.9014 
 268   0.0000       7.952498       216.3985 
 269   0.0000       7.962995       216.6841 
 270   0.0000       8.731083       237.5849 
 271   0.0000       8.734035       237.6652 
 272   0.0000       8.778455       238.8739 
 273   0.0000      16.146500       439.3686 
 274   0.0000      16.371748       445.4979 
 275   0.0000      16.512584       449.3302 

                    ********************************
                    * MULLIKEN POPULATION ANALYSIS *
                    ********************************

-----------------------
MULLIKEN ATOMIC CHARGES
-----------------------
   0 O :   -0.476410
   1 H :    0.301245
   2 H :    0.175701
   3 O :   -0.487061
   4 H :    0.171701
   5 H :    0.311159
   6 O :   -0.476006
   7 H :    0.313469
   8 H :    0.166202
Sum of atomic charges:   -0.0000000

--------------------------------
MULLIKEN REDUCED ORBITAL CHARGES
--------------------------------
  0 O s       :     3.901902  s :     3.901902
      pz      :     1.598287  p :     4.561509
      px      :     1.313222
      py      :     1.649999
      dz2     :     0.001330  d :     0.012448
      dxz     :     0.001500
      dyz     :     0.002356
      dx2y2   :     0.002208
      dxy     :     0.005054
      f0      :     0.000112  f :     0.000550
      f+1     :     0.000003
      f-1     :     0.000160
      f+2     :     0.000021
      f-2     :     0.000251
      f+3     :    -0.000039
      f-3     :     0.000041
  1 H s       :     0.587396  s :     0.587396
      pz      :     0.039048  p :     0.080429
      px      :     0.003553
      py      :     0.037828
      dz2     :    -0.000524  d :     0.030930
      dxz     :     0.011130
      dyz     :     0.000747
      dx2y2   :     0.011028
      dxy     :     0.008549
  2 H s       :     0.703116  s :     0.703116
      pz      :     0.034604  p :     0.104512
      px      :     0.029698
      py      :     0.040210
      dz2     :     0.007543  d :     0.016671
      dxz     :     0.001001
      dyz     :     0.002110
      dx2y2   :     0.003233
      dxy     :     0.002784
  3 O s       :     3.900397  s :     3.900397
      pz      :     1.609125  p :     4.572803
      px      :     1.601662
      py      :     1.362016
      dz2     :     0.001590  d :     0.013245
      dxz     :     0.002398
      dyz     :     0.001531
      dx2y2   :     0.006211
      dxy     :     0.001514
      f0      :     0.000128  f :     0.000616
      f+1     :     0.000137
      f-1     :     0.000032
      f+2     :     0.000238
      f-2     :     0.000064
      f+3     :    -0.000018
      f-3     :     0.000034
  4 H s       :     0.705284  s :     0.705284
      pz      :     0.036221  p :     0.106641
      px      :     0.038103
      py      :     0.032317
      dz2     :     0.007236  d :     0.016374
      dxz     :     0.001132
      dyz     :     0.001819
      dx2y2   :     0.003502
      dxy     :     0.002684
  5 H s       :     0.578469  s :     0.578469
      pz      :     0.038064  p :     0.077652
      px      :     0.031148
      py      :     0.008440
      dz2     :    -0.000313  d :     0.032720
      dxz     :     0.000637
      dyz     :     0.012773
      dx2y2   :     0.000876
      dxy     :     0.018747
  6 O s       :     3.898726  s :     3.898726
      pz      :     1.555612  p :     4.563791
      px      :     1.533354
      py      :     1.474825
      dz2     :     0.001447  d :     0.012946
      dxz     :     0.001720
      dyz     :     0.002719
      dx2y2   :     0.002188
      dxy     :     0.004872
      f0      :     0.000058  f :     0.000543
      f+1     :     0.000078
      f-1     :     0.000092
      f+2     :     0.000162
      f-2     :     0.000080
      f+3     :    -0.000005
      f-3     :     0.000077
  7 H s       :     0.573937  s :     0.573937
      pz      :     0.036528  p :     0.081048
      px      :     0.026496
      py      :     0.018024
      dz2     :    -0.000471  d :     0.031546
      dxz     :     0.006203
      dyz     :     0.005575
      dx2y2   :     0.018640
      dxy     :     0.001599
  8 H s       :     0.705645  s :     0.705645
      pz      :     0.031610  p :     0.110875
      px      :     0.037395
      py      :     0.041870
      dz2     :     0.007593  d :     0.017278
      dxz     :     0.003081
      dyz     :     0.000579
      dx2y2   :     0.002334
      dxy     :     0.003692


                     *******************************
                     * LOEWDIN POPULATION ANALYSIS *
                     *******************************

----------------------
LOEWDIN ATOMIC CHARGES
----------------------
   0 O :    1.096070
   1 H :   -0.617105
   2 H :   -0.470814
   3 O :    1.093623
   4 H :   -0.473522
   5 H :   -0.626634
   6 O :    1.094650
   7 H :   -0.626915
   8 H :   -0.469352

-------------------------------
LOEWDIN REDUCED ORBITAL CHARGES
-------------------------------
  0 O s       :     2.961212  s :     2.961212
      pz      :     1.327216  p :     3.835218
      px      :     1.189426
      py      :     1.318576
      dz2     :     0.013167  d :     0.090657
      dxz     :     0.018285
      dyz     :     0.009259
      dx2y2   :     0.016631
      dxy     :     0.033315
      f0      :     0.000401  f :     0.016843
      f+1     :     0.003008
      f-1     :     0.002676
      f+2     :     0.000406
      f-2     :     0.004137
      f+3     :     0.001285
      f-3     :     0.004931
  1 H s       :     0.544938  s :     0.544938
      pz      :     0.146645  p :     0.598065
      px      :     0.284956
      py      :     0.166464
      dz2     :     0.047176  d :     0.474103
      dxz     :     0.125784
      dyz     :     0.019981
      dx2y2   :     0.158500
      dxy     :     0.122663
  2 H s       :     0.584575  s :     0.584575
      pz      :     0.208721  p :     0.534837
      px      :     0.153941
      py      :     0.172176
      dz2     :     0.093980  d :     0.351401
      dxz     :     0.071286
      dyz     :     0.068301
      dx2y2   :     0.068016
      dxy     :     0.049819
  3 O s       :     2.963186  s :     2.963186
      pz      :     1.330274  p :     3.836884
      px      :     1.286607
      py      :     1.220003
      dz2     :     0.012700  d :     0.089758
      dxz     :     0.021440
      dyz     :     0.005895
      dx2y2   :     0.039917
      dxy     :     0.009807
      f0      :     0.000470  f :     0.016548
      f+1     :     0.003001
      f-1     :     0.002267
      f+2     :     0.003217
      f-2     :     0.001544
      f+3     :     0.001287
      f-3     :     0.004763
  4 H s       :     0.585286  s :     0.585286
      pz      :     0.207947  p :     0.536386
      px      :     0.192150
      py      :     0.136289
      dz2     :     0.092783  d :     0.351850
      dxz     :     0.085521
      dyz     :     0.052057
      dx2y2   :     0.062078
      dxy     :     0.059412
  5 H s       :     0.543855  s :     0.543855
      pz      :     0.147728  p :     0.603395
      px      :     0.155482
      py      :     0.300184
      dz2     :     0.047960  d :     0.479384
      dxz     :     0.007431
      dyz     :     0.140157
      dx2y2   :     0.120074
      dxy     :     0.163763
  6 O s       :     2.961951  s :     2.961951
      pz      :     1.313714  p :     3.836346
      px      :     1.285639
      py      :     1.236993
      dz2     :     0.015145  d :     0.090193
      dxz     :     0.001475
      dyz     :     0.026506
      dx2y2   :     0.014696
      dxy     :     0.032370
      f0      :     0.000247  f :     0.016860
      f+1     :     0.002246
      f-1     :     0.004461
      f+2     :     0.002981
      f-2     :     0.001013
      f+3     :     0.001227
      f-3     :     0.004684
  7 H s       :     0.543566  s :     0.543566
      pz      :     0.145182  p :     0.602783
      px      :     0.237206
      py      :     0.220395
      dz2     :     0.046991  d :     0.480566
      dxz     :     0.084666
      dyz     :     0.064374
      dx2y2   :     0.146208
      dxy     :     0.138328
  8 H s       :     0.583264  s :     0.583264
      pz      :     0.215322  p :     0.534449
      px      :     0.144730
      py      :     0.174397
      dz2     :     0.101576  d :     0.351640
      dxz     :     0.061441
      dyz     :     0.086266
      dx2y2   :     0.041324
      dxy     :     0.061033


                      *****************************
                      * MAYER POPULATION ANALYSIS *
                      *****************************

  NA   - Mulliken gross atomic population
  ZA   - Total nuclear charge
  QA   - Mulliken gross atomic charge
  VA   - Mayer's total valence
  BVA  - Mayer's bonded valence
  FA   - Mayer's free valence

  ATOM       NA         ZA         QA         VA         BVA        FA
  0 O      8.4764     8.0000    -0.4764     1.9213     1.9213     0.0000
  1 H      0.6988     1.0000     0.3012     0.9379     0.9379     0.0000
  2 H      0.8243     1.0000     0.1757     1.0673     1.0673     0.0000
  3 O      8.4871     8.0000    -0.4871     1.9090     1.9090    -0.0000
  4 H      0.8283     1.0000     0.1717     1.0763     1.0763    -0.0000
  5 H      0.6888     1.0000     0.3112     0.9296     0.9296     0.0000
  6 O      8.4760     8.0000    -0.4760     1.9121     1.9121    -0.0000
  7 H      0.6865     1.0000     0.3135     0.9225     0.9225    -0.0000
  8 H      0.8338     1.0000     0.1662     1.0887     1.0887    -0.0000

  Mayer bond orders larger than 0.100000
B(  0-O ,  1-H ) :   0.9011 B(  0-O ,  2-H ) :   1.0421 B(  3-O ,  4-H ) :   1.0461 
B(  3-O ,  5-H ) :   0.8880 B(  6-O ,  7-H ) :   0.8853 B(  6-O ,  8-H ) :   1.0501 


-------
TIMINGS
-------

Total SCF time: 0 days 0 hours 0 min 3 sec 

Total time                  ....       3.478 sec
Sum of individual times     ....       3.283 sec  ( 94.4%)

Fock matrix formation       ....       2.751 sec  ( 79.1%)
  XC integration            ....       0.681 sec  ( 24.8% of F)
    Basis function eval.    ....       0.113 sec  ( 16.6% of XC)
    Density eval.           ....       0.102 sec  ( 15.0% of XC)
    XC-Functional eval.     ....       0.017 sec  (  2.6% of XC)
    XC-Potential eval.      ....       0.211 sec  ( 31.0% of XC)
Diagonalization             ....       0.105 sec  (  3.0%)
Density matrix formation    ....       0.015 sec  (  0.4%)
Population analysis         ....       0.011 sec  (  0.3%)
Initial guess               ....       0.134 sec  (  3.8%)
Orbital Transformation      ....       0.000 sec  (  0.0%)
Orbital Orthonormalization  ....       0.000 sec  (  0.0%)
DIIS solution               ....       0.049 sec  (  1.4%)
SOSCF solution              ....       0.032 sec  (  0.9%)
Grid generation             ....       0.187 sec  (  5.4%)


           ************************************************************
           *        Program running with 24 parallel MPI-processes    *
           *              working on a common directory               *
           ************************************************************

------------------------------------------------------------------------------
                                ORCA  MP2 
------------------------------------------------------------------------------

Freezing NCore=6 chemical core electrons

----------------------
RI-MP2 ENERGY+GRADIENT
----------------------
Dimension of the basis                    ...  276
Memory devoted to MP2                     ... 5000 MB   
Data format for buffers                   ... DOUBLE
Compression type for matrix containers    ... UNCOMPRESSED
Scaling for aa/bb pairs                   ...   4.000e-01
Scaling for ab pairs                      ...   4.700e-01
Overall scaling of the MP2 energy         ...   1.000e+00
Calculating two index integrals           ... done (    0.002 sec)
Cholesky decomposition of the V-matrix    ... done
Cholesky decomposition of V**-1           ... done (    0.005 sec)

-----------------
RI-TRANSFORMATION (AUX index driven)
-----------------

Dimension of the orbital-basis         ... 276
Dimension of the aux-basis             ... 318
Transformation of internal MOs         ...    0-  14
Transformation of internal/external MOs...    0-  14 to   15- 275
Number Format for Storage              ... Double (8 Byte)
Integral mode                          ... Direct

First Phase: integral generation and transformation of MO indices
  Aux angular momentum 0               ... done (    0.004 sec)
  Aux angular momentum 1               ... done (    0.008 sec)
  Aux angular momentum 2               ... done (    0.008 sec)
  Aux angular momentum 3               ... done (    0.008 sec)
  Aux angular momentum 4               ... done (    0.009 sec)
Closing buffer VIJ ( 0.00 GB; CompressionRatio= 0.99)
Closing buffer VIA ( 0.01 GB; CompressionRatio= 1.00)
  Phase 1 completed in     0.142 sec
Second Phase: sorting and transformation of aux index

IJ-Transformation
Memory available                       ... 4991 MB 
Max. # MO pairs treated in a batch     ... 1    
# of internal orbitals                 ... 15
# batches for internal orbitals        ... 1
Closing buffer IJV ( 0.00 GB; CompressionRatio= 1.00)
(ij|v) transformation done in     0.001 sec

IA-Transformation
Memory available                       ... 4991 MB 
Max. # MO pairs treated in a batch     ... 1    
# of internal orbitals                 ... 15
# batches for internal orbitals        ... 1
Closing buffer IAV ( 0.00 GB; CompressionRatio= 1.00)
(ia|v) transformation done in     0.005 sec

  Phase 2 completed in     0.074 sec
RI-Integral transformation completed in     0.218 sec
Opening buffers                              ... done
Frozen core precalculation                   ... done

Starting loop over batches of integrals:

Operator 0  - window                       ... (  3- 14)x( 15-275)
Operator 0  - Memory available             ...  5000 MB
Operator 0  - Memory needed per MO         ...   1.3 MB
Operator 0  - Number of orbitals per batch ... 1
Operator 0  - Number of batches            ... 1

OPERATOR  0   PASS   0:  MOs     3 ...    3 +    4 ...    4 +    5 ...    5 +    6 ...    6
                            +    7 ...    7 +    8 ...    8 +    9 ...    9 +   10 ...   10
                            +   11 ...   11 +   12 ...   12 +   13 ...   13 +   14 ...   14
  Reading integrals       ... ok
Closing buffer GIPV ( 0.00 GB; CompressionRatio= 1.00)
Time spent in pair loops =     0.416 sec
Deleting buffer (Ka|jb)[aa] ...done

-----------------------------------------------
 RI-MP2 CORRELATION ENERGY:     -0.408485324 Eh
-----------------------------------------------


---------------------
MP2 DENSITY FORMATION
---------------------

Completing the external part of the density      ... done
Storing the unrelaxed density                    ... done

Calculating the xc-kernel                        ... done
Calculating G(D)                                 ... done
Completing the Lagrangian                        ... done
Solving the Z-vector equations                   ... 

------------------------------------------------------------------------------
                           ORCA CP-SCF CALCULATION
------------------------------------------------------------------------------

Input orbitals are from        ... 03_H2O_3.gbw
Input Perturbation             ... 03_H2O_3.pin.tmp
Wavefunction output            ... 03_H2O_3.pout.tmp
Perturbation mode              ... Real perturbation (singlet)
Solver                         ... POPLE
Max. number of iterations      ... 128
Convergence tolerance          ... 1.000e-08
Integral handling              ... Direct
Number of perturbations        ... 1
Number of operators            ... 1
Orbital ranges used for CP-SCF:
 Operator 0:  Orbitals   0... 14  to  15...275
DFT calculation                         ... on
Exchange functional (SCF)               ... B88
Exchange functional (CP-SCF)            ... B88
   X-Alpha parameter    XAlpha (SCF)    ...  0.666667
   X-Alpha parameter    XAlpha (CP-SCF) ...  0.666667
   Becke's b parameter  XBeta (SCF)     ...  0.004200
   Becke's b parameter  XBeta (CP-SCF)  ...  0.004200
Correlation functional (SCF)            ... LYP
Correlation functional (CP-SCF)         ... LYP
 LDA part of GGA corr.  LDAOpt (SCF)    ... VWN-5
 LDA part of GGA corr.  LDAOpt (CP-SCF) ... VWN-5
Hybrid DFT                              ... on
   Exchange mixing (SCF)                ...  0.710
   Exchange mixing (CP-SCF)             ...  0.710
   GGA exch. scaling(SCF)               ...  0.290
   GGA exch. scaling (CP-SCF)           ...  0.290
   GGA corr. scaling (SCF)              ...  0.540
   GGA corr. scaling (CP-SCF)           ...  0.540
Variables per vector in CP-SCF ... 3915
Number of vectors sought       ... 1
Recalculating density on grid  ... done
Calculating the xc-kernel      ... done
     CP-SCF ITERATION   0: 
     CP-SCF ITERATION   1:      0.000049609349
     CP-SCF ITERATION   2:      0.000002815979
     CP-SCF ITERATION   3:      0.000000107956
     CP-SCF ITERATION   4:      0.000000003341
done
Finalizing the relaxed density                   ... done
Transforming P to the AO basis                   ... done
Storing the relaxed density                      ... done

------------------------------------
ENERGY WEIGHTED DENSITY FINALIZATION
------------------------------------

Gathering the parts of the W-matrix              ... done
Forming the Z-density                            ... done
Transforming Z to the AO basis                   ... done
Calculating G(Z)                                 ... done
Finalizing the W-matrix                          ... done
Transforming W to the AO basis and storing       ... done
Entering the RIJONX and RIJCOSX sections
Starting the three-index derivative integrals:
Operator 0  - Memory available             ...  5000 MB
Operator 0  - Memory needed per MO         ...   1.3 MB
Operator 0  - Number of orbitals per batch ... 1
Operator 0  - Number of batches            ... 1

OPERATOR  0   PASS   0:  MOs     3 ...    3 +    4 ...    4 +    5 ...    5 +    6 ...    6
                            +    7 ...    7 +    8 ...    8 +    9 ...    9 +   10 ...   10
                            +   11 ...   11 +   12 ...   12 +   13 ...   13 +   14 ...   14

----------------------------------
MP2 DERIVATIVE INTEGRAL GENERATION
----------------------------------


Input Correlated Electron Density   ... 03_H2O_3.pmp2re
Input Energy Weighted Density       ... 03_H2O_3.wmp2.tmp
Input SCF Electron Density          ... 03_H2O_3.scfp

One-Electron Terms    ...
                        ... One-Electron Terms done
Prescreening matrices              ... done
Exchange-correlation gradient    ... done
Dispersion correction            ... done

                *********************************************
                * UNRELAXED MP2 DENSITY POPULATION ANALYSIS *
                *********************************************

------------------------------------------------------------------------------
                           ORCA POPULATION ANALYSIS
------------------------------------------------------------------------------
Input electron density              ... 03_H2O_3.pmp2ur
BaseName (.gbw .S,...)              ... 03_H2O_3

                    ********************************
                    * MULLIKEN POPULATION ANALYSIS *
                    ********************************

-----------------------
MULLIKEN ATOMIC CHARGES
-----------------------
   0 O :   -0.468877
   1 H :    0.297259
   2 H :    0.172109
   3 O :   -0.479568
   4 H :    0.168179
   5 H :    0.307230
   6 O :   -0.468624
   7 H :    0.309654
   8 H :    0.162638
Sum of atomic charges:   -0.0000000

--------------------------------
MULLIKEN REDUCED ORBITAL CHARGES
--------------------------------
  0 O s       :     3.898763  s :     3.898763
      pz      :     1.590286  p :     4.539667
      px      :     1.307255
      py      :     1.642127
      dz2     :     0.004433  d :     0.027863
      dxz     :     0.004574
      dyz     :     0.005436
      dx2y2   :     0.005430
      dxy     :     0.007990
      f0      :     0.000397  f :     0.002583
      f+1     :     0.000286
      f-1     :     0.000454
      f+2     :     0.000306
      f-2     :     0.000539
      f+3     :     0.000258
      f-3     :     0.000342
  1 H s       :     0.591491  s :     0.591491
      pz      :     0.039972  p :     0.080488
      px      :     0.002473
      py      :     0.038043
      dz2     :    -0.000550  d :     0.030762
      dxz     :     0.011162
      dyz     :     0.000822
      dx2y2   :     0.010839
      dxy     :     0.008488
  2 H s       :     0.706356  s :     0.706356
      pz      :     0.034528  p :     0.104893
      px      :     0.029705
      py      :     0.040660
      dz2     :     0.007540  d :     0.016643
      dxz     :     0.000967
      dyz     :     0.002096
      dx2y2   :     0.003252
      dxy     :     0.002787
  3 O s       :     3.897308  s :     3.897308
      pz      :     1.601106  p :     4.550953
      px      :     1.594766
      py      :     1.355081
      dz2     :     0.004705  d :     0.028657
      dxz     :     0.005309
      dyz     :     0.004759
      dx2y2   :     0.009051
      dxy     :     0.004833
      f0      :     0.000413  f :     0.002649
      f+1     :     0.000426
      f-1     :     0.000321
      f+2     :     0.000524
      f-2     :     0.000352
      f+3     :     0.000279
      f-3     :     0.000334
  4 H s       :     0.708433  s :     0.708433
      pz      :     0.036213  p :     0.107043
      px      :     0.038056
      py      :     0.032774
      dz2     :     0.007235  d :     0.016345
      dxz     :     0.001058
      dyz     :     0.001846
      dx2y2   :     0.003506
      dxy     :     0.002699
  5 H s       :     0.582624  s :     0.582624
      pz      :     0.038917  p :     0.077588
      px      :     0.031873
      py      :     0.006799
      dz2     :    -0.000341  d :     0.032558
      dxz     :     0.000737
      dyz     :     0.012795
      dx2y2   :     0.000685
      dxy     :     0.018681
  6 O s       :     3.895704  s :     3.895704
      pz      :     1.547772  p :     4.541917
      px      :     1.525551
      py      :     1.468594
      dz2     :     0.004477  d :     0.028423
      dxz     :     0.004953
      dyz     :     0.005679
      dx2y2   :     0.005423
      dxy     :     0.007890
      f0      :     0.000346  f :     0.002580
      f+1     :     0.000374
      f-1     :     0.000378
      f+2     :     0.000451
      f-2     :     0.000364
      f+3     :     0.000291
      f-3     :     0.000375
  7 H s       :     0.578010  s :     0.578010
      pz      :     0.037331  p :     0.080972
      px      :     0.025528
      py      :     0.018112
      dz2     :    -0.000502  d :     0.031365
      dxz     :     0.006238
      dyz     :     0.005646
      dx2y2   :     0.018652
      dxy     :     0.001330
  8 H s       :     0.708922  s :     0.708922
      pz      :     0.031307  p :     0.111198
      px      :     0.038054
      py      :     0.041837
      dz2     :     0.007579  d :     0.017243
      dxz     :     0.003107
      dyz     :     0.000491
      dx2y2   :     0.002352
      dxy     :     0.003714


                     *******************************
                     * LOEWDIN POPULATION ANALYSIS *
                     *******************************

----------------------
LOEWDIN ATOMIC CHARGES
----------------------
   0 O :    1.094647
   1 H :   -0.616308
   2 H :   -0.470211
   3 O :    1.092188
   4 H :   -0.472924
   5 H :   -0.625817
   6 O :    1.093210
   7 H :   -0.626065
   8 H :   -0.468721

-------------------------------
LOEWDIN REDUCED ORBITAL CHARGES
-------------------------------
  0 O s       :     2.960136  s :     2.960136
      pz      :     1.321878  p :     3.819858
      px      :     1.185017
      py      :     1.312963
      dz2     :     0.016243  d :     0.106179
      dxz     :     0.021310
      dyz     :     0.012419
      dx2y2   :     0.019626
      dxy     :     0.036581
      f0      :     0.000702  f :     0.019179
      f+1     :     0.003361
      f-1     :     0.003002
      f+2     :     0.000700
      f-2     :     0.004485
      f+3     :     0.001617
      f-3     :     0.005312
  1 H s       :     0.544112  s :     0.544112
      pz      :     0.147153  p :     0.599507
      px      :     0.285391
      py      :     0.166964
      dz2     :     0.047319  d :     0.472688
      dxz     :     0.125106
      dyz     :     0.020033
      dx2y2   :     0.157809
      dxy     :     0.122421
  2 H s       :     0.583269  s :     0.583269
      pz      :     0.209645  p :     0.536761
      px      :     0.154357
      py      :     0.172759
      dz2     :     0.093368  d :     0.350180
      dxz     :     0.071291
      dyz     :     0.068164
      dx2y2   :     0.067594
      dxy     :     0.049764
  3 O s       :     2.962106  s :     2.962106
      pz      :     1.324916  p :     3.821523
      px      :     1.281294
      py      :     1.215313
      dz2     :     0.015775  d :     0.105298
      dxz     :     0.024805
      dyz     :     0.008733
      dx2y2   :     0.043319
      dxy     :     0.012667
      f0      :     0.000773  f :     0.018884
      f+1     :     0.003346
      f-1     :     0.002598
      f+2     :     0.003553
      f-2     :     0.001853
      f+3     :     0.001621
      f-3     :     0.005141
  4 H s       :     0.583975  s :     0.583975
      pz      :     0.208869  p :     0.538325
      px      :     0.192960
      py      :     0.136497
      dz2     :     0.092172  d :     0.350624
      dxz     :     0.085591
      dyz     :     0.051869
      dx2y2   :     0.061825
      dxy     :     0.059168
  5 H s       :     0.543057  s :     0.543057
      pz      :     0.148244  p :     0.604812
      px      :     0.155782
      py      :     0.300786
      dz2     :     0.048094  d :     0.477948
      dxz     :     0.007672
      dyz     :     0.139288
      dx2y2   :     0.120198
      dxy     :     0.162696
  6 O s       :     2.960888  s :     2.960888
      pz      :     1.308465  p :     3.820977
      px      :     1.280350
      py      :     1.232162
      dz2     :     0.018231  d :     0.105727
      dxz     :     0.004354
      dyz     :     0.029790
      dx2y2   :     0.017661
      dxy     :     0.035691
      f0      :     0.000546  f :     0.019198
      f+1     :     0.002564
      f-1     :     0.004841
      f+2     :     0.003310
      f-2     :     0.001318
      f+3     :     0.001560
      f-3     :     0.005059
  7 H s       :     0.542765  s :     0.542765
      pz      :     0.145654  p :     0.604176
      px      :     0.237846
      py      :     0.220677
      dz2     :     0.047138  d :     0.479124
      dxz     :     0.084174
      dyz     :     0.064212
      dx2y2   :     0.145331
      dxy     :     0.138269
  8 H s       :     0.581963  s :     0.581963
      pz      :     0.216266  p :     0.536345
      px      :     0.145018
      py      :     0.175061
      dz2     :     0.100951  d :     0.350413
      dxz     :     0.061085
      dyz     :     0.086411
      dx2y2   :     0.041292
      dxy     :     0.060674


                      *****************************
                      * MAYER POPULATION ANALYSIS *
                      *****************************

  NA   - Mulliken gross atomic population
  ZA   - Total nuclear charge
  QA   - Mulliken gross atomic charge
  VA   - Mayer's total valence
  BVA  - Mayer's bonded valence
  FA   - Mayer's free valence

  ATOM       NA         ZA         QA         VA         BVA        FA
  0 O      8.4689     8.0000    -0.4689     2.0715     1.8571     0.2144
  1 H      0.7027     1.0000     0.2973     0.9430     0.9067     0.0363
  2 H      0.8279     1.0000     0.1721     1.0733     1.0333     0.0400
  3 O      8.4796     8.0000    -0.4796     2.0603     1.8451     0.2153
  4 H      0.8318     1.0000     0.1682     1.0822     1.0422     0.0400
  5 H      0.6928     1.0000     0.3072     0.9345     0.8987     0.0358
  6 O      8.4686     8.0000    -0.4686     2.0630     1.8480     0.2150
  7 H      0.6903     1.0000     0.3097     0.9273     0.8918     0.0355
  8 H      0.8374     1.0000     0.1626     1.0945     1.0544     0.0402

  Mayer bond orders larger than 0.100000
B(  0-O ,  1-H ) :   0.8706 B(  0-O ,  2-H ) :   1.0086 B(  3-O ,  4-H ) :   1.0126 
B(  3-O ,  5-H ) :   0.8577 B(  6-O ,  7-H ) :   0.8551 B(  6-O ,  8-H ) :   1.0165 



                *******************************************
                * RELAXED MP2 DENSITY POPULATION ANALYSIS *
                *******************************************

------------------------------------------------------------------------------
                           ORCA POPULATION ANALYSIS
------------------------------------------------------------------------------
Input electron density              ... 03_H2O_3.pmp2re
BaseName (.gbw .S,...)              ... 03_H2O_3

                    ********************************
                    * MULLIKEN POPULATION ANALYSIS *
                    ********************************

-----------------------
MULLIKEN ATOMIC CHARGES
-----------------------
   0 O :   -0.454973
   1 H :    0.284277
   2 H :    0.170672
   3 O :   -0.464974
   4 H :    0.166102
   5 H :    0.295073
   6 O :   -0.454873
   7 H :    0.296978
   8 H :    0.161718
Sum of atomic charges:   -0.0000000

--------------------------------
MULLIKEN REDUCED ORBITAL CHARGES
--------------------------------
  0 O s       :     3.896524  s :     3.896524
      pz      :     1.587430  p :     4.527867
      px      :     1.307652
      py      :     1.632785
      dz2     :     0.004538  d :     0.027983
      dxz     :     0.004499
      dyz     :     0.005633
      dx2y2   :     0.005477
      dxy     :     0.007837
      f0      :     0.000404  f :     0.002600
      f+1     :     0.000293
      f-1     :     0.000456
      f+2     :     0.000311
      f-2     :     0.000537
      f+3     :     0.000257
      f-3     :     0.000342
  1 H s       :     0.594565  s :     0.594565
      pz      :     0.044123  p :     0.091810
      px      :     0.006831
      py      :     0.040857
      dz2     :    -0.000431  d :     0.029347
      dxz     :     0.010602
      dyz     :     0.000820
      dx2y2   :     0.010493
      dxy     :     0.007863
  2 H s       :     0.702101  s :     0.702101
      pz      :     0.038194  p :     0.111874
      px      :     0.029914
      py      :     0.043766
      dz2     :     0.006998  d :     0.015352
      dxz     :     0.000911
      dyz     :     0.001784
      dx2y2   :     0.003109
      dxy     :     0.002549
  3 O s       :     3.894921  s :     3.894921
      pz      :     1.597992  p :     4.538768
      px      :     1.586347
      py      :     1.354430
      dz2     :     0.004796  d :     0.028619
      dxz     :     0.005318
      dyz     :     0.004821
      dx2y2   :     0.008859
      dxy     :     0.004824
      f0      :     0.000421  f :     0.002666
      f+1     :     0.000439
      f-1     :     0.000315
      f+2     :     0.000522
      f-2     :     0.000358
      f+3     :     0.000279
      f-3     :     0.000332
  4 H s       :     0.704668  s :     0.704668
      pz      :     0.039710  p :     0.114133
      px      :     0.040695
      py      :     0.033729
      dz2     :     0.006712  d :     0.015097
      dxz     :     0.000798
      dyz     :     0.001771
      dx2y2   :     0.003232
      dxy     :     0.002584
  5 H s       :     0.585993  s :     0.585993
      pz      :     0.042757  p :     0.088091
      px      :     0.036422
      py      :     0.008911
      dz2     :    -0.000277  d :     0.030843
      dxz     :     0.000763
      dyz     :     0.011978
      dx2y2   :     0.000482
      dxy     :     0.017898
  6 O s       :     3.893360  s :     3.893360
      pz      :     1.546061  p :     4.530426
      px      :     1.520556
      py      :     1.463809
      dz2     :     0.004548  d :     0.028497
      dxz     :     0.005158
      dyz     :     0.005592
      dx2y2   :     0.005368
      dxy     :     0.007831
      f0      :     0.000350  f :     0.002590
      f+1     :     0.000365
      f-1     :     0.000390
      f+2     :     0.000453
      f-2     :     0.000365
      f+3     :     0.000291
      f-3     :     0.000374
  7 H s       :     0.582292  s :     0.582292
      pz      :     0.040779  p :     0.091024
      px      :     0.027328
      py      :     0.022917
      dz2     :    -0.000430  d :     0.029706
      dxz     :     0.005837
      dyz     :     0.005372
      dx2y2   :     0.017652
      dxy     :     0.001274
  8 H s       :     0.704981  s :     0.704981
      pz      :     0.034440  p :     0.117403
      px      :     0.040339
      py      :     0.042624
      dz2     :     0.007044  d :     0.015898
      dxz     :     0.002862
      dyz     :     0.000325
      dx2y2   :     0.002186
      dxy     :     0.003482


                     *******************************
                     * LOEWDIN POPULATION ANALYSIS *
                     *******************************

----------------------
LOEWDIN ATOMIC CHARGES
----------------------
   0 O :    1.099082
   1 H :   -0.619548
   2 H :   -0.471487
   3 O :    1.096609
   4 H :   -0.474230
   5 H :   -0.628996
   6 O :    1.097809
   7 H :   -0.629177
   8 H :   -0.470062

-------------------------------
[...]
             <<<Displacing   7/coordinate 1 (-)>>>
             <<<Displacing   9/coordinate 1 (+)>>>
             <<<Displacing   9/coordinate 2 (+)>>>
             <<<Displacing   9/coordinate 3 (+)>>>
             <<<Displacing   9/coordinate 1 (-)>>>
             <<<Displacing   9/coordinate 2 (-)>>>
             <<<Displacing   9/coordinate 3 (-)>>>

-----------------------
VIBRATIONAL FREQUENCIES
-----------------------

Scaling factor for frequencies =  1.000000000 (already applied!)

   0:         0.00 cm**-1
   1:         0.00 cm**-1
   2:         0.00 cm**-1
   3:         0.00 cm**-1
   4:         0.00 cm**-1
   5:         0.00 cm**-1
   6:       170.31 cm**-1
   7:       181.10 cm**-1
   8:       190.85 cm**-1
   9:       209.12 cm**-1
  10:       223.84 cm**-1
  11:       245.73 cm**-1
  12:       349.66 cm**-1
  13:       358.71 cm**-1
  14:       450.93 cm**-1
  15:       577.29 cm**-1
  16:       672.94 cm**-1
  17:       867.98 cm**-1
  18:      1650.74 cm**-1
  19:      1653.78 cm**-1
  20:      1678.38 cm**-1
  21:      3594.64 cm**-1
  22:      3657.48 cm**-1
  23:      3666.84 cm**-1
  24:      3914.70 cm**-1
  25:      3919.49 cm**-1
  26:      3921.84 cm**-1


------------
NORMAL MODES
------------

These modes are the cartesian displacements weighted by the diagonal matrix
M(i,i)=1/sqrt(m[i]) where m[i] is the mass of the displaced atom
Thus, these vectors are normalized but *not* orthogonal

                  0          1          2          3          4          5    
      0       0.000000   0.000000   0.000000   0.000000   0.000000   0.000000
      1       0.000000   0.000000   0.000000   0.000000   0.000000   0.000000
      2       0.000000   0.000000   0.000000   0.000000   0.000000   0.000000
      3       0.000000   0.000000   0.000000   0.000000   0.000000   0.000000
      4       0.000000   0.000000   0.000000   0.000000   0.000000   0.000000
      5       0.000000   0.000000   0.000000   0.000000   0.000000   0.000000
      6       0.000000   0.000000   0.000000   0.000000   0.000000   0.000000
      7       0.000000   0.000000   0.000000   0.000000   0.000000   0.000000
      8       0.000000   0.000000   0.000000   0.000000   0.000000   0.000000
      9       0.000000   0.000000   0.000000   0.000000   0.000000   0.000000
     10       0.000000   0.000000   0.000000   0.000000   0.000000   0.000000
     11       0.000000   0.000000   0.000000   0.000000   0.000000   0.000000
     12       0.000000   0.000000   0.000000   0.000000   0.000000   0.000000
     13       0.000000   0.000000   0.000000   0.000000   0.000000   0.000000
     14       0.000000   0.000000   0.000000   0.000000   0.000000   0.000000
     15       0.000000   0.000000   0.000000   0.000000   0.000000   0.000000
     16       0.000000   0.000000   0.000000   0.000000   0.000000   0.000000
     17       0.000000   0.000000   0.000000   0.000000   0.000000   0.000000
     18       0.000000   0.000000   0.000000   0.000000   0.000000   0.000000
     19       0.000000   0.000000   0.000000   0.000000   0.000000   0.000000
     20       0.000000   0.000000   0.000000   0.000000   0.000000   0.000000
     21       0.000000   0.000000   0.000000   0.000000   0.000000   0.000000
     22       0.000000   0.000000   0.000000   0.000000   0.000000   0.000000
     23       0.000000   0.000000   0.000000   0.000000   0.000000   0.000000
     24       0.000000   0.000000   0.000000   0.000000   0.000000   0.000000
     25       0.000000   0.000000   0.000000   0.000000   0.000000   0.000000
     26       0.000000   0.000000   0.000000   0.000000   0.000000   0.000000
                  6          7          8          9         10         11    
      0      -0.066150  -0.122403   0.216287   0.000908  -0.260770  -0.037748
      1      -0.026971   0.151030   0.113523  -0.105586  -0.137525  -0.004170
      2      -0.052430   0.016260  -0.020283  -0.019660  -0.012686   0.005957
      3      -0.069859  -0.132711   0.158223   0.080938  -0.253038  -0.070352
      4      -0.024466   0.117299   0.007426   0.042060  -0.115855  -0.049087
      5       0.002746  -0.106433   0.073007  -0.041855  -0.161111   0.112138
      6       0.182396  -0.025083   0.231517   0.242707  -0.087721  -0.236378
      7       0.535969   0.196947   0.493440   0.098226  -0.124434  -0.178277
      8       0.541529   0.131605   0.249097   0.325232   0.146315  -0.282060
      9       0.012874   0.245510  -0.014758  -0.059507   0.250491   0.009838
     10       0.044997  -0.021045  -0.231661   0.004212  -0.190992  -0.025559
     11       0.031057  -0.034944   0.004178  -0.012239  -0.030073   0.047621
     12       0.374753  -0.286624   0.116508  -0.413696   0.108801   0.429695
     13      -0.021025   0.174018  -0.274369   0.029751  -0.293255   0.121737
     14      -0.377708   0.605831  -0.150305   0.371992   0.080056  -0.335732
     15       0.064879   0.056772   0.131786   0.016884   0.227758   0.090987
     16       0.041743  -0.025256  -0.220591   0.020111  -0.215337  -0.008461
     17       0.116794  -0.194664  -0.043732  -0.171137   0.150469  -0.168068
     18       0.008172  -0.075888  -0.214179   0.066408  -0.004702   0.033867
     19      -0.046540  -0.166199   0.108403   0.052475   0.363710   0.006559
     20       0.012215  -0.027283   0.006488  -0.016459   0.050041  -0.039336
     21       0.047527  -0.121873  -0.066095   0.047310   0.054567   0.006738
     22      -0.092254  -0.098117  -0.102874   0.091094   0.292190   0.044388
     23      -0.191973  -0.048452  -0.134619  -0.129762   0.075300   0.045120
     24       0.116214  -0.239941  -0.371162  -0.098088   0.187422  -0.315245
     25       0.012606   0.209899   0.251474   0.494890  -0.101887   0.437450
     26       0.053984   0.341706   0.159193   0.413063  -0.406608   0.402559
                 12         13         14         15         16         17    
      0      -0.025868  -0.004222   0.005490   0.026730  -0.013793  -0.026584
      1       0.025732   0.013172  -0.022599   0.013895   0.016220   0.006945
      2      -0.008481   0.038040   0.001988   0.032726   0.024585  -0.007166
      3       0.072930   0.075200  -0.088440  -0.271552  -0.033434   0.156605
      4       0.170445   0.155834  -0.166978  -0.604539  -0.044492   0.368638
      5      -0.426898  -0.080439   0.385302  -0.521544  -0.209832   0.233436
      6       0.345573   0.073743  -0.380746  -0.068291   0.041894   0.107986
      7      -0.248045  -0.278236   0.268944   0.049491  -0.183492  -0.172000
      8       0.127420  -0.093393  -0.135142  -0.026368  -0.063473  -0.008173
      9      -0.013731   0.012373   0.010442   0.002895  -0.021943   0.010917
     10       0.018854   0.016514   0.050131   0.008024   0.003428  -0.021429
     11       0.030691  -0.005767  -0.026886  -0.002813   0.020473  -0.019150
     12      -0.027767  -0.039621  -0.238870  -0.008795   0.011182   0.053394
     13      -0.314798  -0.410936  -0.425616   0.048607   0.064373   0.156508
     14      -0.091699  -0.125876   0.041961   0.024558   0.010254   0.014360
     15       0.271238   0.124495   0.323740  -0.342555   0.413688  -0.456374
     16       0.028236  -0.007278   0.050782  -0.039786   0.067493  -0.074409
     17       0.160152   0.420605   0.234570   0.292606  -0.450530   0.336653
     18       0.020960  -0.037090   0.011637   0.010370  -0.019167   0.017364
     19      -0.007691  -0.024907   0.006838   0.015276   0.016223   0.022710
     20      -0.028238  -0.026220  -0.007359  -0.012640   0.034609   0.007237
     21       0.086338  -0.163056   0.196766   0.123182   0.297866   0.316164
     22      -0.140134   0.203904  -0.267432  -0.144289  -0.410637  -0.407023
     23       0.365736  -0.406612  -0.028386  -0.120196  -0.492139  -0.280831
     24      -0.452479   0.388562  -0.250031  -0.066787   0.140219  -0.204700
     25      -0.081301   0.260859  -0.005235   0.100162  -0.062586  -0.002273
     26      -0.039044   0.189644   0.013684   0.076775  -0.058746   0.007378
                 18         19         20         21         22         23    
      0       0.002839   0.010159   0.004609   0.023069   0.006545   0.040136
      1      -0.014806  -0.034168  -0.036137  -0.015090  -0.005422  -0.027709
      2       0.009151   0.029496   0.026252   0.004639   0.002350   0.008473
      3       0.070461   0.172916   0.208562  -0.414560  -0.135260  -0.754825
      4       0.126802   0.295332   0.352590   0.215291   0.066274   0.375549
      5      -0.135705  -0.373011  -0.350257  -0.011740  -0.005410  -0.017038
      6      -0.131105  -0.322503  -0.330970   0.063843   0.031540   0.122291
      7       0.110529   0.267735   0.267867   0.039334   0.023272   0.065574
      8      -0.037570  -0.099243  -0.101508  -0.060731  -0.032264  -0.116119
      9      -0.031970  -0.008014   0.021204   0.000948  -0.002232  -0.000078
     10      -0.031237  -0.009256   0.014089   0.036685  -0.041598  -0.012474
     11      -0.033835  -0.006197   0.022463   0.006802  -0.008280  -0.001991
     12       0.077956   0.032084  -0.026985  -0.083658   0.104098   0.017032
     13       0.519584   0.142619  -0.297073   0.044717  -0.060750  -0.016522
     14       0.130459   0.025924  -0.088614  -0.074289   0.096294   0.019536
     15       0.443804   0.109798  -0.317676   0.047511  -0.066538  -0.019104
     16      -0.003150  -0.005077   0.000764  -0.620141   0.719641   0.212555
     17       0.442199   0.103169  -0.260870  -0.035462   0.034812   0.010396
     18      -0.024634   0.035732  -0.022848  -0.030531  -0.032742   0.022585
     19       0.002994  -0.008749   0.009506  -0.016858  -0.017727   0.011310
     20      -0.024385   0.031369  -0.019603  -0.006321  -0.006085   0.005173
     21       0.108260  -0.179673   0.141351   0.490635   0.525635  -0.361203
     22      -0.190782   0.303813  -0.246143   0.332943   0.365159  -0.254565
     23       0.299833  -0.411085   0.263230   0.018800   0.015004  -0.009581
     24       0.283999  -0.413797   0.278661  -0.000380  -0.008253   0.001539
     25       0.120305  -0.176335   0.121070  -0.087330  -0.085932   0.075678
     26       0.079606  -0.113455   0.075943   0.082156   0.082265  -0.072170
                  24         25         26    
      0       0.000394  -0.005956   0.046786
      1      -0.000659  -0.003029   0.020446
      2       0.000313   0.005508  -0.039082
      3      -0.012793   0.015675  -0.160082
      4       0.005679  -0.010827   0.104387
      5      -0.000034   0.002009  -0.027342
      6       0.004861   0.079961  -0.579768
      7       0.001831   0.059403  -0.427322
      8      -0.004672  -0.090285   0.648842
      9       0.000362  -0.042359  -0.005970
     10      -0.000835   0.029273   0.003134
     11       0.000181  -0.038157  -0.005365
     12      -0.003350   0.675629   0.094496
     13       0.001022  -0.284301  -0.041084
     14      -0.003125   0.637904   0.089408
     15      -0.001093  -0.006133  -0.002946
     16       0.011741  -0.178365  -0.008412
     17      -0.000882  -0.031779  -0.004376
     18       0.005806   0.000874  -0.000312
     19       0.047993   0.000597  -0.000078
     20      -0.042854  -0.000104  -0.000240
     21      -0.157469  -0.013558   0.005290
     22      -0.084980  -0.009820   0.003666
     23      -0.029490  -0.000207  -0.001585
     24       0.065691   0.001409   0.000140
     25      -0.673320  -0.002116  -0.004267
     26       0.710532   0.002210   0.004318


-----------
IR SPECTRUM  
-----------

 Mode    freq (cm**-1)   T**2         TX         TY         TZ
-------------------------------------------------------------------
   6:       170.31   69.592169  (  6.805174   4.564787   1.563490)
   7:       181.10   83.475984  ( -6.854229   3.568081   4.874866)
   8:       190.85    8.261760  (  1.915194  -1.878352   1.032272)
   9:       209.12  133.286296  (  0.709719   8.637121   7.627761)
  10:       223.84   10.529550  (  1.357101  -2.888865  -0.585050)
  11:       245.73   23.612498  ( -1.202776   4.012648  -2.462617)
  12:       349.66   89.035874  (  4.650327  -8.151253   0.983573)
  13:       358.71   45.981126  (  6.696370  -0.169588  -1.054036)
  14:       450.93  123.997373  ( -5.479891  -8.465800   4.722119)
  15:       577.29  161.841699  (-10.897822  -6.040496  -2.567408)
  16:       672.94  298.425165  (  8.812027  -9.384631 -11.519638)
  17:       867.98   10.060511  ( -0.534113  -1.530526   2.726302)
  18:      1650.74   87.516164  (  7.386848   2.741358   5.043372)
  19:      1653.78   82.451956  ( -2.285013   6.871488  -5.478442)
  20:      1678.38   11.624103  ( -0.023301   1.673221  -2.970504)
  21:      3594.64   11.671657  (  3.233859  -1.101577   0.018423)
  22:      3657.48  552.104442  (  0.855491  23.475882  -0.505529)
  23:      3666.84  510.600503  (-22.581521   0.816877   0.090102)
  24:      3914.70   95.383172  ( -3.394744  -7.959263   4.528688)
  25:      3919.49  103.020157  (  6.818689  -6.727161   3.357224)
  26:      3921.84   89.755049  ( -8.091635  -2.097750   4.458692)

The first frequency considered to be a vibration is 6
The total number of vibrations considered is 21


--------------------------
THERMOCHEMISTRY AT 298.15K
--------------------------

Temperature         ... 298.15 K
Pressure            ... 1.00 atm
Total Mass          ... 54.05 AMU

Throughout the following assumptions are being made:
  (1) The electronic state is orbitally nondegenerate
  (2) There are no thermally accessible electronically excited states
  (3) Hindered rotations indicated by low frequency modes are not
      treated as such but are treated as vibrations and this may
      cause some error
  (4) All equations used are the standard statistical mechanics
      equations for an ideal gas
  (5) All vibrations are strictly harmonic

freq.     170.31  E(vib)   ...       0.38 
freq.     181.10  E(vib)   ...       0.37 
freq.     190.85  E(vib)   ...       0.36 
freq.     209.12  E(vib)   ...       0.34 
freq.     223.84  E(vib)   ...       0.33 
freq.     245.73  E(vib)   ...       0.31 
freq.     349.66  E(vib)   ...       0.23 
freq.     358.71  E(vib)   ...       0.22 
freq.     450.93  E(vib)   ...       0.17 
freq.     577.29  E(vib)   ...       0.11 
freq.     672.94  E(vib)   ...       0.08 
freq.     867.98  E(vib)   ...       0.04 
freq.    1650.74  E(vib)   ...       0.00 
freq.    1653.78  E(vib)   ...       0.00 
freq.    1678.38  E(vib)   ...       0.00 
freq.    3594.64  E(vib)   ...       0.00 
freq.    3657.48  E(vib)   ...       0.00 
freq.    3666.84  E(vib)   ...       0.00 
freq.    3914.70  E(vib)   ...       0.00 
freq.    3919.49  E(vib)   ...       0.00 
freq.    3921.84  E(vib)   ...       0.00 

------------
INNER ENERGY
------------

The inner energy is: U= E(el) + E(ZPE) + E(vib) + E(rot) + E(trans)
    E(el)   - is the total energy from the electronic structure calculation
              = E(kin-el) + E(nuc-el) + E(el-el) + E(nuc-nuc)
    E(ZPE)  - the the zero temperature vibrational energy from the frequency calculation
    E(vib)  - the the finite temperature correction to E(ZPE) due to population
              of excited vibrational states
    E(rot)  - is the rotational thermal energy
    E(trans)- is the translational thermal energy

Summary of contributions to the inner energy U:
Electronic energy                ...   -229.19845105 Eh
Zero point energy                ...      0.07325756 Eh      45.97 kcal/mol
Thermal vibrational correction   ...      0.00468029 Eh       2.94 kcal/mol
Thermal rotational correction    ...      0.00141627 Eh       0.89 kcal/mol
Thermal translational correction ...      0.00141627 Eh       0.89 kcal/mol
-----------------------------------------------------------------------
Total thermal energy                   -229.11768066 Eh


Summary of corrections to the electronic energy:
(perhaps to be used in another calculation)
Total thermal correction                  0.00751283 Eh       4.71 kcal/mol
Non-thermal (ZPE) correction              0.07325756 Eh      45.97 kcal/mol
-----------------------------------------------------------------------
Total correction                          0.08077039 Eh      50.68 kcal/mol


--------
ENTHALPY
--------

The enthalpy is H = U + kB*T
                kB is Boltzmann's constant
Total free energy                 ...   -229.11768066 Eh 
Thermal Enthalpy correction       ...      0.00094421 Eh       0.59 kcal/mol
-----------------------------------------------------------------------
Total Enthalpy                    ...   -229.11673645 Eh


Note: Only C1 symmetry has been detected, increase convergence thresholds 
      if your molecule has a higher symmetry. Symmetry factor of 1.0 is   
      used for the rotational entropy correction. 
 

Note: Rotational entropy computed according to Herzberg 
Infrared and Raman Spectra, Chapter V,1, Van Nostrand Reinhold, 1945 
Point Group:  C1, Symmetry Number:   1  
Rotational constants in cm-1:     0.231997     0.229028     0.117371 

Vibrational entropy computed according to the QRRHO of S. Grimme
Chem.Eur.J. 2012 18 9955


-------
ENTROPY
-------

The entropy contributions are T*S = T*(S(el)+S(vib)+S(rot)+S(trans))
     S(el)   - electronic entropy
     S(vib)  - vibrational entropy
     S(rot)  - rotational entropy
     S(trans)- translational entropy
The entropies will be listed as mutliplied by the temperature to get
units of energy

Electronic entropy                ...      0.00000000 Eh      0.00 kcal/mol
Vibrational entropy               ...      0.00798686 Eh      5.01 kcal/mol
Rotational entropy                ...      0.01190778 Eh      7.47 kcal/mol
Translational entropy             ...      0.01799974 Eh     11.29 kcal/mol
-----------------------------------------------------------------------
Final entropy term                ...      0.03789438 Eh     23.78 kcal/mol

In case the symmetry of your molecule has not been determined correctly
or in case you have a reason to use a different symmetry number we print 
out the resulting rotational entropy values for sn=1,12 :
 --------------------------------------------------------
|  sn= 1 | S(rot)=       0.01190778 Eh      7.47 kcal/mol|
|  sn= 2 | S(rot)=       0.01125333 Eh      7.06 kcal/mol|
|  sn= 3 | S(rot)=       0.01087049 Eh      6.82 kcal/mol|
|  sn= 4 | S(rot)=       0.01059887 Eh      6.65 kcal/mol|
|  sn= 5 | S(rot)=       0.01038818 Eh      6.52 kcal/mol|
|  sn= 6 | S(rot)=       0.01021604 Eh      6.41 kcal/mol|
|  sn= 7 | S(rot)=       0.01007049 Eh      6.32 kcal/mol|
|  sn= 8 | S(rot)=       0.00994441 Eh      6.24 kcal/mol|
|  sn= 9 | S(rot)=       0.00983320 Eh      6.17 kcal/mol|
|  sn=10 | S(rot)=       0.00973372 Eh      6.11 kcal/mol|
|  sn=11 | S(rot)=       0.00964373 Eh      6.05 kcal/mol|
|  sn=12 | S(rot)=       0.00956158 Eh      6.00 kcal/mol|
 --------------------------------------------------------


-------------------
GIBBS FREE ENERGY
-------------------

The Gibbs free energy is G = H - T*S

Total enthalpy                    ...   -229.11673645 Eh 
Total entropy correction          ...     -0.03789438 Eh    -23.78 kcal/mol
-----------------------------------------------------------------------
Final Gibbs free energy         ...   -229.15463083 Eh

For completeness - the Gibbs free energy minus the electronic energy
G-E(el)                           ...      0.04382022 Eh     27.50 kcal/mol


Total Time for Numerical Frequencies  :       976.546 sec

Timings for individual modules:

Sum of individual times         ...       98.917 sec (=   1.649 min)
GTO integral calculation        ...        3.312 sec (=   0.055 min)   3.3 %
SCF iterations                  ...       10.627 sec (=   0.177 min)  10.7 %
MP2 module                      ...       84.629 sec (=   1.410 min)  85.6 %
Geometry relaxation             ...        0.349 sec (=   0.006 min)   0.4 %
                             ****ORCA TERMINATED NORMALLY****
TOTAL RUN TIME: 0 days 0 hours 17 minutes 37 seconds 978 msec
