
                                 *****************
                                 * O   R   C   A *
                                 *****************

           --- An Ab Initio, DFT and Semiempirical electronic structure package ---

                  #######################################################
                  #                        -***-                        #
                  #          Department of theory and spectroscopy      #
                  #               Directorship: Frank Neese             #
                  #        Max Planck Institute fuer Kohlenforschung    #
                  #                Kaiser Wilhelm Platz 1               #
                  #                 D-45470 Muelheim/Ruhr               #
                  #                      Germany                        #
                  #                                                     #
                  #                  All rights reserved                #
                  #                        -***-                        #
                  #######################################################


                         Program Version 4.2.0 -  RELEASE  -


 With contributions from (in alphabetic order):
   Daniel Aravena         : Magnetic Suceptibility
   Michael Atanasov       : Ab Initio Ligand Field Theory (pilot matlab implementation)
   Alexander A. Auer      : GIAO ZORA, VPT2
   Ute Becker             : Parallelization
   Giovanni Bistoni       : ED, misc. LED, open-shell LED, HFLED
   Martin Brehm           : Molecular dynamics
   Dmytro Bykov           : SCF Hessian
   Vijay G. Chilkuri      : MRCI spin determinant printing, contributions to CSF-ICE
   Dipayan Datta          : RHF DLPNO-CCSD density
   Achintya Kumar Dutta   : EOM-CC, STEOM-CC
   Dmitry Ganyushin       : Spin-Orbit,Spin-Spin,Magnetic field MRCI
   Miquel Garcia          : C-PCM Hessian, Gaussian charge scheme
   Yang Guo               : DLPNO-NEVPT2, CIM, IAO-localization
   Andreas Hansen         : Spin unrestricted coupled pair/coupled cluster methods
   Benjamin Helmich-Paris : CASSCF linear response (MC-RPA)
   Lee Huntington         : MR-EOM, pCC
   Robert Izsak           : Overlap fitted RIJCOSX, COSX-SCS-MP3, EOM
   Christian Kollmar      : KDIIS, OOCD, Brueckner-CCSD(T), CCSD density
   Simone Kossmann        : Meta GGA functionals, TD-DFT gradient, OOMP2, MP2 Hessian
   Martin Krupicka        : AUTO-CI
   Lucas Lang             : DCDCAS
   Dagmar Lenk            : GEPOL surface, SMD
   Dimitrios Liakos       : Extrapolation schemes; Compound Job, initial MDCI parallelization
   Dimitrios Manganas     : Further ROCIS development; embedding schemes
   Dimitrios Pantazis     : SARC Basis sets
   Taras Petrenko         : DFT Hessian,TD-DFT gradient, ASA, ECA, R-Raman, ABS, FL, XAS/XES, NRVS
   Peter Pinski           : DLPNO-MP2, DLPNO-MP2 Gradient
   Christoph Reimann      : Effective Core Potentials
   Marius Retegan         : Local ZFS, SOC
   Christoph Riplinger    : Optimizer, TS searches, QM/MM, DLPNO-CCSD(T), (RO)-DLPNO pert. Triples
   Tobias Risthaus        : Range-separated hybrids, TD-DFT gradient, RPA, STAB
   Michael Roemelt        : Original ROCIS implementation
   Masaaki Saitow         : Open-shell DLPNO-CCSD energy and density
   Barbara Sandhoefer     : DKH picture change effects
   Avijit Sen             : IP-ROCIS
   Kantharuban Sivalingam : CASSCF convergence, NEVPT2, FIC-MRCI
   Bernardo de Souza      : ESD, SOC TD-DFT
   Georgi Stoychev        : AutoAux, RI-MP2 NMR
   Willem Van den Heuvel  : Paramagnetic NMR
   Boris Wezisla          : Elementary symmetry handling
   Frank Wennmohs         : Technical directorship


 We gratefully acknowledge several colleagues who have allowed us to
 interface, adapt or use parts of their codes:
   Stefan Grimme, W. Hujo, H. Kruse,             : VdW corrections, initial TS optimization,
                  C. Bannwarth                     DFT functionals, gCP, sTDA/sTD-DF
   Ed Valeev, F. Pavosevic, A. Kumar             : LibInt (2-el integral package), F12 methods
   Garnet Chan, S. Sharma, J. Yang, R. Olivares  : DMRG
   Ulf Ekstrom                                   : XCFun DFT Library
   Mihaly Kallay                                 : mrcc  (arbitrary order and MRCC methods)
   Andreas Klamt, Michael Diedenhofen            : otool_cosmo (COSMO solvation model)
   Jiri Pittner, Ondrej Demel                    : Mk-CCSD
   Frank Weinhold                                : gennbo (NPA and NBO analysis)
   Christopher J. Cramer and Donald G. Truhlar   : smd solvation model
   Lars Goerigk                                  : TD-DFT with DH, B97 family of functionals
   V. Asgeirsson, H. Jonsson                     : NEB implementation
   FAccTs GmbH                                   : IRC, NEB, NEB-TS, Multilevel, MM, QM/MM, CI optimization
   S Lehtola, MJT Oliveira, MAL Marques          : LibXC Library


 Your calculation uses the libint2 library for the computation of 2-el integrals
 For citations please refer to: http://libint.valeyev.net

 Your ORCA version has been built with support for libXC version: 4.2.3
 For citations please refer to: https://tddft.org/programs/libxc/

 This ORCA versions uses:
   CBLAS   interface :  Fast vector & matrix operations
   LAPACKE interface :  Fast linear algebra routines
   SCALAPACK package :  Parallel linear algebra routines


Your calculation utilizes the atom-pairwise dispersion correction
with the Becke-Johnson damping scheme (D3BJ)
Cite in your paper:
S.Grimme, S.Ehrlich, L.Goerigk, J Comput Chem, (2011), 32, 1456–1465 
S.Grimme, J.Antony, S.Ehrlich and H.Krieg, J.Chem.Phys., 132, (2010), 154104 
   

----- Orbital basis set information -----
Your calculation utilizes the basis: aug-cc-pV(T+d)Z 
             Al - Ar: T.H. Dunning, Jr., K. A. Peterson and A. K. Wilson, J. Chem. Phys.
                      114, 9244 (2001)

----- AuxC basis set information -----
Your calculation utilizes the auxiliary basis: def2-TZVP/C
  H-La, Hf-Rn : A. Hellweg, C. Hattig, S. Hofener and W. Klopper, Theor. Chem. Acc. 117, 587 (2007).
        Ce-Lu : J. Chmela and M. E. Harding, Mol. Phys. (2018).

----- AuxJK basis set information -----
Your calculation utilizes the auxiliary basis: def2/JK
   H-Ba, Hf-Rn: F. Weigend, J. Comput. Chem. 29, 167 (2008).

================================================================================
                                        WARNINGS
                       Please study these warnings very carefully!
================================================================================


WARNING: The frozen-core approximation for MP2-gradient calculations is turned on by default.

WARNING: Geometry Optimization
  ===> : Switching off AutoStart
         For restart on a previous wavefunction, please use MOREAD

WARNING: There are different parametrizations of Gershom Martin's DSD-DFs
         for use with and without D3(BJ)!
         You are using the D3(BJ) parametrized version,
         consistent with the 2013 article (S. Kozuch and J. M. L. Martin, JCC 2013, 34, 2327)

WARNING: The frozen-core approximation is turned on by default for 
         the MP2 part of double-hybrid DFT.

INFO   : the flag for use of LIBINT has been found!

================================================================================
                                       INPUT FILE
================================================================================
NAME = 04_H2O_4.in
|  1> #
|  2> # 04_H2O_4 dsd-blyp/aug-cc-pvt(+d)z
|  3> #
|  4> ! rijk ri-dsd-blyp/2013 d3bj aug-cc-pvt(+d)z def2/jk def2-tzvp/c grid4 nofinalgrid opt xyzfile numfreq
|  5> 
|  6> *xyz 0 1
|  7> O	1.372659		-1.372658	0.015734
|  8> H	0.406261		-1.511316	-0.008945
|  9> H	1.683553		-1.872433	0.772059
| 10> O	-1.372658		-1.372658	-0.015734
| 11> H	-1.511316		-0.406261	0.008945
| 12> H	-1.872433		-1.683553	-0.772059
| 13> O	-1.372658		1.372659	0.015734
| 14> H	-0.406261		1.511317	-0.008945
| 15> H	-1.683553		1.872433	0.772059
| 16> O	1.372659		1.372659	-0.015734
| 17> H	1.511317		0.406261	0.008945
| 18> H	1.872433		1.683553	-0.772059
| 19> *
| 20> 
| 21> %maxcore 5000
| 22> 
| 23> %pal
| 24> nprocs 24
| 25> end
| 26> 
| 27> 
| 28>                          ****END OF INPUT****
================================================================================

                       *****************************
                       * Geometry Optimization Run *
                       *****************************

Geometry optimization settings:
Update method            Update   .... BFGS
Choice of coordinates    CoordSys .... Z-matrix Internals
Initial Hessian          InHess   .... Almoef's Model

Convergence Tolerances:
Energy Change            TolE     ....  5.0000e-06 Eh
Max. Gradient            TolMAXG  ....  3.0000e-04 Eh/bohr
RMS Gradient             TolRMSG  ....  1.0000e-04 Eh/bohr
Max. Displacement        TolMAXD  ....  4.0000e-03 bohr
RMS Displacement         TolRMSD  ....  2.0000e-03 bohr
Strict Convergence                ....  False
------------------------------------------------------------------------------
                        ORCA OPTIMIZATION COORDINATE SETUP
------------------------------------------------------------------------------

The optimization will be done in new redundant internal coordinates
Making redundant internal coordinates   ...  (new redundants) done
Evaluating the initial hessian          ...  (Almloef) done
Evaluating the coordinates              ...  done
Calculating the B-matrix                .... done
Calculating the G-matrix                .... done
Diagonalizing the G-matrix              .... done
The first mode is                       ....   94
The number of degrees of freedom        ....   30

    -----------------------------------------------------------------
                    Redundant Internal Coordinates


    -----------------------------------------------------------------
         Definition                    Initial Value    Approx d2E/dq
    -----------------------------------------------------------------
      1. B(H   1,O   0)                  0.9766         0.489184   
      2. B(H   2,O   0)                  0.9584         0.523094   
      3. B(O   3,H   1)                  1.7843         0.025165   
      4. B(H   4,H   1)                  2.2133         0.001113   
      5. B(H   4,O   3)                  0.9766         0.489186   
      6. B(H   5,O   3)                  0.9584         0.523094   
      7. B(O   6,H   4)                  1.7843         0.025165   
      8. B(H   7,O   6)                  0.9766         0.489186   
      9. B(H   7,H   4)                  2.2133         0.001113   
     10. B(H   8,O   6)                  0.9584         0.523095   
     11. B(O   9,H   7)                  1.7843         0.025165   
     12. B(H  10,O   9)                  0.9766         0.489184   
     13. B(H  10,H   1)                  2.2133         0.001113   
     14. B(H  10,O   0)                  1.7843         0.025165   
     15. B(H  10,H   7)                  2.2133         0.001113   
     16. B(H  11,O   9)                  0.9584         0.523095   
     17. A(H   1,O   0,H  10)          102.6121         0.204712   
     18. A(H   2,O   0,H  10)          119.8481         0.206481   
     19. A(H   1,O   0,H   2)          105.4806         0.318954   
     20. A(O   0,H   1,O   3)          167.3198         0.204712   
     21. A(O   0,H   1,H  10)           51.8821         0.135215   
     22. A(O   0,H   1,H   4)          141.8365         0.135215   
     23. A(H   4,H   1,H  10)           89.9963         0.098430   
     24. A(O   3,H   1,H   4)           25.5058         0.112611   
     25. A(O   3,H   1,H  10)          115.4978         0.112611   
     26. A(H   1,O   3,H   4)          102.6121         0.204712   
     27. A(H   4,O   3,H   5)          105.4807         0.318954   
     28. A(H   1,O   3,H   5)          119.8481         0.206481   
     29. A(O   3,H   4,H   7)          141.8365         0.135215   
     30. A(O   6,H   4,H   7)           25.5058         0.112611   
     31. A(H   1,H   4,H   7)           89.9963         0.098430   
     32. A(H   1,H   4,O   6)          115.4978         0.112611   
     33. A(O   3,H   4,O   6)          167.3198         0.204712   
     34. A(H   1,H   4,O   3)           51.8821         0.135215   
     35. A(H   7,O   6,H   8)          105.4807         0.318954   
     36. A(H   4,O   6,H   8)          119.8480         0.206481   
     37. A(H   4,O   6,H   7)          102.6121         0.204712   
     38. A(H   4,H   7,O   9)          115.4978         0.112611   
     39. A(O   6,H   7,O   9)          167.3198         0.204712   
     40. A(H   4,H   7,O   6)           51.8821         0.135215   
     41. A(O   9,H   7,H  10)           25.5058         0.112611   
     42. A(H   4,H   7,H  10)           89.9962         0.098430   
     43. A(O   6,H   7,H  10)          141.8365         0.135215   
     44. A(H   7,O   9,H  11)          119.8480         0.206481   
     45. A(H   7,O   9,H  10)          102.6121         0.204712   
     46. A(H  10,O   9,H  11)          105.4807         0.318954   
     47. A(O   0,H  10,O   9)          167.3198         0.204712   
     48. A(O   0,H  10,H   1)           25.5058         0.112611   
     49. A(H   1,H  10,O   9)          141.8365         0.135215   
     50. A(H   1,H  10,H   7)           89.9962         0.098430   
     51. A(O   0,H  10,H   7)          115.4978         0.112611   
     52. A(H   7,H  10,O   9)           51.8821         0.135215   
     53. D(H  10,H   1,O   0,H   2)    126.2406         0.357621   
     54. D(O   3,H   1,O   0,H   2)    120.2411         0.357621   
     55. D(H   4,H   1,O   0,H   2)    123.0995         0.357621   
     56. D(O   3,H   1,O   0,H  10)     -5.9995         0.357621   
     57. D(H   4,H   1,O   0,H  10)     -3.1411         0.357621   
     58. D(H   4,O   3,H   1,O   0)      4.1036         0.001912   
     59. D(H   4,O   3,H   1,H  10)     -1.1235         0.001912   
     60. D(H   5,O   3,H   1,H   4)    116.3425         0.001912   
     61. D(H   5,O   3,H   1,O   0)    120.4460         0.001912   
     62. D(H   5,O   3,H   1,H  10)    115.2190         0.001912   
     63. D(O   6,H   4,H   1,O   3)   -178.5435         0.001515   
     64. D(O   3,H   4,H   1,H  10)    178.9859         0.001515   
     65. D(O   6,H   4,H   1,H  10)      0.4425         0.001515   
     66. D(O   6,H   4,H   1,O   0)      2.9132         0.001515   
     67. D(H   7,H   4,O   3,H   1)      3.1411         0.357624   
     68. D(O   6,H   4,O   3,H   1)      5.9995         0.357624   
     69. D(O   6,H   4,O   3,H   5)   -120.2411         0.357624   
     70. D(H   1,H   4,O   3,H   5)   -126.2406         0.357624   
     71. D(H   7,H   4,H   1,O   3)   -178.0597         0.001515   
     72. D(H   7,H   4,H   1,H  10)      0.9262         0.001515   
     73. D(H   7,H   4,O   3,H   5)   -123.0995         0.357624   
     74. D(O   3,H   4,H   1,O   0)   -178.5433         0.001515   
     75. D(H   7,H   4,H   1,O   0)      3.3970         0.001515   
     76. D(H   8,O   6,H   4,H   1)   -115.2189         0.001912   
     77. D(H   8,O   6,H   4,H   7)   -116.3425         0.001912   
     78. D(H   8,O   6,H   4,O   3)   -120.4460         0.001912   
     79. D(H   7,O   6,H   4,H   1)      1.1235         0.001912   
     80. D(H   7,O   6,H   4,O   3)     -4.1036         0.001912   
     81. D(O   6,H   7,H   4,O   3)    178.5433         0.001515   
     82. D(O   6,H   7,H   4,H   1)   -178.9859         0.001515   
     83. D(O   9,H   7,H   4,O   3)     -2.9132         0.001515   
     84. D(H  10,H   7,O   6,H   4)     -3.1411         0.357624   
     85. D(H  10,H   7,O   6,H   8)    123.0994         0.357624   
     86. D(O   9,H   7,O   6,H   8)    120.2410         0.357624   
     87. D(H   4,H   7,O   6,H   8)    126.2405         0.357624   
     88. D(H  10,H   7,H   4,O   6)    178.0597         0.001515   
     89. D(H  10,H   7,H   4,H   1)     -0.9262         0.001515   
     90. D(O   9,H   7,O   6,H   4)     -5.9995         0.357624   
     91. D(H  10,H   7,H   4,O   3)     -3.3970         0.001515   
     92. D(O   9,H   7,H   4,O   6)    178.5435         0.001515   
     93. D(O   9,H   7,H   4,H   1)     -0.4425         0.001515   
     94. D(H  11,O   9,H   7,H  10)    116.3424         0.001912   
     95. D(H  11,O   9,H   7,H   4)    115.2189         0.001912   
     96. D(H  11,O   9,H   7,O   6)    120.4460         0.001912   
     97. D(H  10,O   9,H   7,H   4)     -1.1235         0.001912   
     98. D(H  10,O   9,H   7,O   6)      4.1036         0.001912   
     99. D(O   0,H  10,H   7,O   6)      2.9132         0.001515   
    100. D(O   9,H  10,H   7,H   4)    178.9859         0.001515   
    101. D(O   9,H  10,H   7,O   6)   -178.5433         0.001515   
    102. D(H   7,H  10,H   1,O   3)     -0.4425         0.001515   
    103. D(H   7,H  10,H   1,O   0)   -178.9859         0.001515   
    104. D(O   0,H  10,H   1,H   4)    178.0597         0.001515   
    105. D(O   0,H  10,H   1,O   3)    178.5435         0.001515   
    106. D(O   9,H  10,H   1,H   4)     -3.3970         0.001515   
    107. D(O   9,H  10,H   1,O   3)     -2.9132         0.001515   
    108. D(O   9,H  10,H   1,O   0)    178.5433         0.001515   
    109. D(H   7,H  10,O   0,H   2)   -115.2189         0.001912   
    110. D(H   7,H  10,H   1,H   4)     -0.9262         0.001515   
    111. D(H   7,H  10,O   0,H   1)      1.1235         0.001912   
    112. D(H   1,H  10,O   0,H   2)   -116.3424         0.001912   
    113. D(O   9,H  10,O   0,H   2)   -120.4460         0.001912   
    114. D(O   0,H  10,H   7,H   4)      0.4425         0.001515   
    115. D(O   9,H  10,O   0,H   1)     -4.1036         0.001912   
    116. D(H   7,H  10,O   9,H  11)   -126.2405         0.357621   
    117. D(H   1,H  10,O   9,H  11)   -123.0994         0.357621   
    118. D(O   0,H  10,O   9,H   7)      5.9995         0.357621   
    119. D(O   0,H  10,O   9,H  11)   -120.2410         0.357621   
    120. D(H   1,H  10,H   7,O   9)   -178.0597         0.001515   
    121. D(H   1,H  10,H   7,H   4)      0.9262         0.001515   
    122. D(H   1,H  10,O   9,H   7)      3.1411         0.357621   
    123. D(H   1,H  10,H   7,O   6)      3.3970         0.001515   
    124. D(O   0,H  10,H   7,O   9)   -178.5435         0.001515   
    -----------------------------------------------------------------

Number of atoms                         .... 12
Number of degrees of freedom            .... 124

         *************************************************************
         *                GEOMETRY OPTIMIZATION CYCLE   1            *
         *************************************************************
---------------------------------
CARTESIAN COORDINATES (ANGSTROEM)
---------------------------------
  O      1.372659   -1.372658    0.015734
  H      0.406261   -1.511316   -0.008945
  H      1.683553   -1.872433    0.772059
  O     -1.372658   -1.372658   -0.015734
  H     -1.511316   -0.406261    0.008945
  H     -1.872433   -1.683553   -0.772059
  O     -1.372658    1.372659    0.015734
  H     -0.406261    1.511317   -0.008945
  H     -1.683553    1.872433    0.772059
  O      1.372659    1.372659   -0.015734
  H      1.511317    0.406261    0.008945
  H      1.872433    1.683553   -0.772059

----------------------------
CARTESIAN COORDINATES (A.U.)
----------------------------
  NO LB      ZA    FRAG     MASS         X           Y           Z
   0 O     8.0000    0    15.999    2.593950   -2.593948    0.029733
   1 H     1.0000    0     1.008    0.767722   -2.855973   -0.016904
   2 H     1.0000    0     1.008    3.181454   -3.538386    1.458980
   3 O     8.0000    0    15.999   -2.593948   -2.593948   -0.029733
   4 H     1.0000    0     1.008   -2.855973   -0.767722    0.016904
   5 H     1.0000    0     1.008   -3.538386   -3.181454   -1.458980
   6 O     8.0000    0    15.999   -2.593948    2.593950    0.029733
   7 H     1.0000    0     1.008   -0.767722    2.855975   -0.016904
   8 H     1.0000    0     1.008   -3.181454    3.538386    1.458980
   9 O     8.0000    0    15.999    2.593950    2.593950   -0.029733
  10 H     1.0000    0     1.008    2.855975    0.767722    0.016904
  11 H     1.0000    0     1.008    3.538386    3.181454   -1.458980

--------------------------------
INTERNAL COORDINATES (ANGSTROEM)
--------------------------------
 O      0   0   0     0.000000000000     0.00000000     0.00000000
 H      1   0   0     0.976606465476     0.00000000     0.00000000
 H      1   2   0     0.958361954319   105.48063347     0.00000000
 O      2   1   3     1.784327587649   167.31984179   120.24107791
 H      4   2   1     0.976605475929   102.61211353     4.10356285
 H      4   2   1     0.958362278721   119.84805779   120.44602620
 O      5   4   2     1.784328584618   167.31983583     5.99948704
 H      7   5   4     0.976605475929   102.61211104   355.89643243
 H      7   5   4     0.958361757233   119.84800790   239.55397543
 O      8   7   5     1.784328584618   167.31983583   354.00051315
 H     10   8   7     0.976606465476   102.61210273     4.10356916
 H     10   8   7     0.958361432831   119.84802438   120.44596220

---------------------------
INTERNAL COORDINATES (A.U.)
---------------------------
 O      0   0   0     0.000000000000     0.00000000     0.00000000
 H      1   0   0     1.845518760366     0.00000000     0.00000000
 H      1   2   0     1.811041630832   105.48063347     0.00000000
 O      2   1   3     3.371890473857   167.31984179   120.24107791
 H      4   2   1     1.845516890393   102.61211353     4.10356285
 H      4   2   1     1.811042243863   119.84805779   120.44602620
 O      5   4   2     3.371892357855   167.31983583     5.99948704
 H      7   5   4     1.845516890393   102.61211104   355.89643243
 H      7   5   4     1.811041258393   119.84800790   239.55397543
 O      8   7   5     3.371892357855   167.31983583   354.00051315
 H     10   8   7     1.845518760366   102.61210273     4.10356916
 H     10   8   7     1.811040645362   119.84802438   120.44596220

---------------------
BASIS SET INFORMATION
---------------------
There are 2 groups of distinct atoms

 Group   1 Type O   : 19s6p3d2f contracted to 5s4p3d2f pattern {88111/3111/111/11}
 Group   2 Type H   : 6s3p2d contracted to 4s3p2d pattern {3111/111/11}

Atom   0O    basis set group =>   1
Atom   1H    basis set group =>   2
Atom   2H    basis set group =>   2
Atom   3O    basis set group =>   1
Atom   4H    basis set group =>   2
Atom   5H    basis set group =>   2
Atom   6O    basis set group =>   1
Atom   7H    basis set group =>   2
Atom   8H    basis set group =>   2
Atom   9O    basis set group =>   1
Atom  10H    basis set group =>   2
Atom  11H    basis set group =>   2
---------------------------------
AUXILIARY/C BASIS SET INFORMATION
---------------------------------
There are 2 groups of distinct atoms

 Group   1 Type O   : 8s6p5d3f1g contracted to 8s6p4d3f1g pattern {11111111/111111/2111/111/1}
 Group   2 Type H   : 4s3p2d contracted to 4s2p1d pattern {1111/21/2}

Atom   0O    basis set group =>   1
Atom   1H    basis set group =>   2
Atom   2H    basis set group =>   2
Atom   3O    basis set group =>   1
Atom   4H    basis set group =>   2
Atom   5H    basis set group =>   2
Atom   6O    basis set group =>   1
Atom   7H    basis set group =>   2
Atom   8H    basis set group =>   2
Atom   9O    basis set group =>   1
Atom  10H    basis set group =>   2
Atom  11H    basis set group =>   2
----------------------------------
AUXILIARY/JK BASIS SET INFORMATION
----------------------------------
There are 2 groups of distinct atoms

 Group   1 Type O   : 14s10p6d2f1g contracted to 10s8p4d2f1g pattern {5111111111/31111111/3111/11/1}
 Group   2 Type H   : 4s2p2d contracted to 2s2p2d pattern {31/11/11}

Atom   0O    basis set group =>   1
Atom   1H    basis set group =>   2
Atom   2H    basis set group =>   2
Atom   3O    basis set group =>   1
Atom   4H    basis set group =>   2
Atom   5H    basis set group =>   2
Atom   6O    basis set group =>   1
Atom   7H    basis set group =>   2
Atom   8H    basis set group =>   2
Atom   9O    basis set group =>   1
Atom  10H    basis set group =>   2
Atom  11H    basis set group =>   2


           ************************************************************
           *        Program running with 24 parallel MPI-processes    *
           *              working on a common directory               *
           ************************************************************
------------------------------------------------------------------------------
                           ORCA GTO INTEGRAL CALCULATION
                           -- RI-GTO INTEGRALS CHOSEN --
------------------------------------------------------------------------------

                         BASIS SET STATISTICS AND STARTUP INFO

Gaussian basis set:
 # of primitive gaussian shells          ...  208
 # of primitive gaussian functions       ...  464
 # of contracted shells                  ...  128
 # of contracted basis functions         ...  368
 Highest angular momentum                ...    3
 Maximum contraction depth               ...    8
Auxiliary gaussian basis set:
 # of primitive gaussian shells          ...  196
 # of primitive gaussian functions       ...  548
 # of contracted shells                  ...  148
 # of contracted aux-basis functions     ...  452
 Highest angular momentum                ...    4
 Maximum contraction depth               ...    5
Ratio of auxiliary to basis functions    ...  1.23
Integral package used                  ... LIBINT
 One Electron integrals                  ... done
 Ordering auxiliary basis shells         ... done
 Integral threshhold             Thresh  ...  2.500e-11
 Primitive cut-off               TCut    ...  2.500e-12
 Pre-screening matrix                    ... done
 Shell pair data                         ... 
 Ordering of the shell pairs             ... done (   0.002 sec) 8012 of 8256 pairs
 Determination of significant pairs      ... done (   0.000 sec)
 Creation of shell pair data             ... done (   0.001 sec)
 Storage of shell pair data              ... done (   0.048 sec)
 Shell pair data done in (   0.050 sec)
 Computing two index integrals           ... done
 Cholesky decomposition of the V-matrix  ... done


Timings:
 Total evaluation time                   ...   0.311 sec (  0.005 min)
 One electron matrix time                ...   0.074 sec (  0.001 min) = 23.9%
 Schwartz matrix evaluation time         ...   0.160 sec (  0.003 min) = 51.5%
 Two index repulsion integral time       ...   0.004 sec (  0.000 min) =  1.2%
 Cholesky decomposition of V             ...   0.003 sec (  0.000 min) =  1.0%
 Three index repulsion integral time     ...   0.000 sec (  0.000 min) =  0.0%



           ************************************************************
           *        Program running with 24 parallel MPI-processes    *
           *              working on a common directory               *
           ************************************************************
-------------------------------------------------------------------------------
                                 ORCA SCF
-------------------------------------------------------------------------------

------------
SCF SETTINGS
------------
Hamiltonian:
 Density Functional     Method          .... DFT(GTOs)
 Exchange Functional    Exchange        .... B88
   X-Alpha parameter    XAlpha          ....  0.666667
   Becke's b parameter  XBeta           ....  0.004200
 Correlation Functional Correlation     .... LYP
 LDA part of GGA corr.  LDAOpt          .... VWN-5
 Gradients option       PostSCFGGA      .... off
 Hybrid DFT is turned on
   Fraction HF Exchange ScalHFX         ....  0.710000
   Scaling of DF-GGA-X  ScalDFX         ....  0.290000
   Scaling of DF-GGA-C  ScalDFC         ....  0.540000
   Scaling of DF-LDA-C  ScalLDAC        ....  0.540000
   Perturbative correction              ....  1.000000
   Density functional embedding theory  .... OFF
 RI-approximation to the Coulomb term is turned on
   Number of auxiliary basis functions  .... 452
   RI-JK (J+K treated both via RI)      .... on


General Settings:
 Integral files         IntName         .... 04_H2O_4
 Hartree-Fock type      HFTyp           .... RHF
 Total Charge           Charge          ....    0
 Multiplicity           Mult            ....    1
 Number of Electrons    NEL             ....   40
 Basis Dimension        Dim             ....  368
 Nuclear Repulsion      ENuc            ....    141.3596395251 Eh

Convergence Acceleration:
 DIIS                   CNVDIIS         .... on
   Start iteration      DIISMaxIt       ....    12
   Startup error        DIISStart       ....  0.200000
   # of expansion vecs  DIISMaxEq       ....     5
   Bias factor          DIISBfac        ....   1.050
   Max. coefficient     DIISMaxC        ....  10.000
 Newton-Raphson         CNVNR           .... off
 SOSCF                  CNVSOSCF        .... on
   Start iteration      SOSCFMaxIt      ....   150
   Startup grad/error   SOSCFStart      ....  0.003300
 Level Shifting         CNVShift        .... on
   Level shift para.    LevelShift      ....    0.2500
   Turn off err/grad.   ShiftErr        ....    0.0010
 Zerner damping         CNVZerner       .... off
 Static damping         CNVDamp         .... on
   Fraction old density DampFac         ....    0.7000
   Max. Damping (<1)    DampMax         ....    0.9800
   Min. Damping (>=0)   DampMin         ....    0.0000
   Turn off err/grad.   DampErr         ....    0.1000
 Fernandez-Rico         CNVRico         .... off

SCF Procedure:
 Maximum # iterations   MaxIter         ....   125
 SCF integral mode      SCFMode         .... Direct
   Integral package                     .... LIBINT
 Reset frequency        DirectResetFreq ....    20
 Integral Threshold     Thresh          ....  2.500e-11 Eh
 Primitive CutOff       TCut            ....  2.500e-12 Eh

Convergence Tolerance:
 Convergence Check Mode ConvCheckMode   .... Total+1el-Energy
 Convergence forced     ConvForced      .... 0
 Energy Change          TolE            ....  1.000e-08 Eh
 1-El. energy change                    ....  1.000e-05 Eh
 Orbital Gradient       TolG            ....  1.000e-05
 Orbital Rotation angle TolX            ....  1.000e-05
 DIIS Error             TolErr          ....  5.000e-07


Diagonalization of the overlap matrix:
Smallest eigenvalue                        ... 1.138e-04
Time for diagonalization                   ...    0.022 sec
Threshold for overlap eigenvalues          ... 1.000e-08
Number of eigenvalues below threshold      ... 0
Time for construction of square roots      ...    0.017 sec
Total time needed                          ...    0.041 sec

-------------------
DFT GRID GENERATION
-------------------

General Integration Accuracy     IntAcc      ...  4.670
Radial Grid Type                 RadialGrid  ... Gauss-Chebyshev
Angular Grid (max. acc.)         AngularGrid ... Lebedev-302
Angular grid pruning method      GridPruning ... 3 (G Style)
Weight generation scheme         WeightScheme... Becke
Basis function cutoff            BFCut       ...    1.0000e-11
Integration weight cutoff        WCut        ...    1.0000e-14
Grids for H and He will be reduced by one unit

# of grid points (after initial pruning)     ...  52000 (   0.0 sec)
# of grid points (after weights+screening)   ...  49024 (   0.0 sec)
nearest neighbour list constructed           ...    0.0 sec
Grid point re-assignment to atoms done       ...    0.0 sec
Grid point division into batches done        ...    0.2 sec
Reduced shell lists constructed in    0.3 sec

Total number of grid points                  ...    49024
Total number of batches                      ...      772
Average number of points per batch           ...       63
Average number of grid points per atom       ...     4085
Average number of shells per batch           ...    89.65 (70.04%)
Average number of basis functions per batch  ...   249.24 (67.73%)
Average number of large shells per batch     ...    73.50 (81.99%)
Average number of large basis fcns per batch ...   199.44 (80.02%)
Average number of aux-shells per batch       ...    89.65 (60.57%)
Average number of aux functions per batch    ...   249.24 (55.14%)
Maximum spatial batch extension              ...  14.21, 10.44, 11.53 au
Average spatial batch extension              ...   0.12,  0.10,  0.12 au

Time for grid setup =    0.324 sec

------------------------------
INITIAL GUESS: MODEL POTENTIAL
------------------------------
Loading Hartree-Fock densities                     ... done
Calculating cut-offs                               ... done
Setting up the integral package                    ... done
Initializing the effective Hamiltonian             ... done
Starting the Coulomb interaction                   ... done (   0.0 sec)
Reading the grid                                   ... done
Mapping shells                                     ... done
Starting the XC term evaluation                    ... done (   0.1 sec)
  promolecular density results
     # of electrons  =     39.996233363
     EX              =    -35.164104939
     EC              =     -0.161849697
     EX+EC           =    -35.325954636
Transforming the Hamiltonian                       ... done (   0.0 sec)
Diagonalizing the Hamiltonian                      ... done (   0.0 sec)
Back transforming the eigenvectors                 ... done (   0.0 sec)
Now organizing SCF variables                       ... done
                      ------------------
                      INITIAL GUESS DONE (   0.5 sec)
                      ------------------
--------------
SCF ITERATIONS
--------------
ITER       Energy         Delta-E        Max-DP      RMS-DP      [F,P]     Damp
  0   -304.7455327957   0.000000000000 0.03457965  0.00061180  0.3444686 0.7000
  1   -304.4423793074   0.303153488279 0.03148478  0.00063647  0.2814668 0.7000
                               ***Turning on DIIS***
  2   -304.5255834900  -0.083204182622 0.01365486  0.00033160  0.1305943 0.7000
  3   -304.7574944800  -0.231910989998 0.02345452  0.00028381  0.0412635 0.0000
  4   -305.0426690061  -0.285174526059 0.00784122  0.00019536  0.0677739 0.0000
  5   -305.0544979519  -0.011828945814 0.00635894  0.00012970  0.0356731 0.0000
  6   -305.0581420255  -0.003644073537 0.00368102  0.00007379  0.0158822 0.0000
  7   -305.0589791848  -0.000837159319 0.00119524  0.00002609  0.0047429 0.0000
                      *** Initiating the SOSCF procedure ***
                           *** Shutting down DIIS ***
                      *** Re-Reading the Fockian *** 
                      *** Removing any level shift *** 
ITER      Energy       Delta-E        Grad      Rot      Max-DP    RMS-DP
  8   -305.05906716  -0.0000879788  0.000253  0.000253  0.000306  0.000008
  9   -305.05907149  -0.0000043288  0.000035  0.000065  0.000074  0.000002
 10   -305.05907158  -0.0000000867  0.000012  0.000036  0.000022  0.000001
 11   -305.05907159  -0.0000000078  0.000007  0.000007  0.000006  0.000000
                  ***Gradient check signals convergence***
              ***Rediagonalizing the Fockian in SOSCF/NRSCF***

               *****************************************************
               *                     SUCCESS                       *
               *           SCF CONVERGED AFTER  12 CYCLES          *
               *****************************************************


----------------
TOTAL SCF ENERGY
----------------

Total Energy       :         -305.05907159 Eh           -8301.07936 eV

Components:
Nuclear Repulsion  :          141.35963953 Eh            3846.59135 eV
Electronic Energy  :         -446.41871111 Eh          -12147.67071 eV
One Electron Energy:         -701.60660125 Eh          -19091.68622 eV
Two Electron Energy:          255.18789014 Eh            6944.01552 eV

Virial components:
Potential Energy   :         -609.12940367 Eh          -16575.25374 eV
Kinetic Energy     :          304.07033208 Eh            8274.17439 eV
Virial Ratio       :            2.00325168


DFT components:
N(Alpha)           :       20.000035993156 electrons
N(Beta)            :       20.000035993156 electrons
N(Total)           :       40.000071986311 electrons
E(X)               :      -10.424169932266 Eh       
E(C)               :       -0.747230323898 Eh       
E(XC)              :      -11.171400256164 Eh       
DFET-embed. en.    :        0.000000000000 Eh       

---------------
SCF CONVERGENCE
---------------

  Last Energy change         ...   -2.1075e-09  Tolerance :   1.0000e-08
  Last MAX-Density change    ...    6.7134e-06  Tolerance :   1.0000e-07
  Last RMS-Density change    ...    1.0784e-07  Tolerance :   5.0000e-09
  Last Orbital Gradient      ...    1.1197e-06  Tolerance :   1.0000e-05
  Last Orbital Rotation      ...    1.3968e-06  Tolerance :   1.0000e-05

             **** THE GBW FILE WAS UPDATED (04_H2O_4.gbw) ****
             **** DENSITY FILE WAS UPDATED (04_H2O_4.scfp) ****
             **** ENERGY FILE WAS UPDATED (04_H2O_4.en.tmp) ****
             **** THE GBW FILE WAS UPDATED (04_H2O_4.gbw) ****
             **** DENSITY FILE WAS UPDATED (04_H2O_4.scfp) ****
----------------
ORBITAL ENERGIES
----------------

  NO   OCC          E(Eh)            E(eV) 
   0   2.0000     -20.048461      -545.5464 
   1   2.0000     -20.048453      -545.5461 
   2   2.0000     -20.048453      -545.5461 
   3   2.0000     -20.048445      -545.5459 
   4   2.0000      -1.244517       -33.8650 
   5   2.0000      -1.229954       -33.4688 
   6   2.0000      -1.229954       -33.4688 
   7   2.0000      -1.215721       -33.0814 
   8   2.0000      -0.668689       -18.1959 
   9   2.0000      -0.655723       -17.8431 
  10   2.0000      -0.655723       -17.8431 
  11   2.0000      -0.647152       -17.6099 
  12   2.0000      -0.557775       -15.1778 
  13   2.0000      -0.522174       -14.2091 
  14   2.0000      -0.522174       -14.2091 
  15   2.0000      -0.487459       -13.2644 
  16   2.0000      -0.443866       -12.0782 
  17   2.0000      -0.441638       -12.0176 
  18   2.0000      -0.441638       -12.0176 
  19   2.0000      -0.440975       -11.9995 
  20   0.0000       0.012149         0.3306 
  21   0.0000       0.030384         0.8268 
  22   0.0000       0.030384         0.8268 
  23   0.0000       0.036405         0.9906 
  24   0.0000       0.058292         1.5862 
  25   0.0000       0.069236         1.8840 
  26   0.0000       0.069237         1.8840 
  27   0.0000       0.074747         2.0340 
  28   0.0000       0.099068         2.6958 
  29   0.0000       0.128130         3.4866 
  30   0.0000       0.133909         3.6438 
  31   0.0000       0.133909         3.6439 
  32   0.0000       0.145411         3.9568 
  33   0.0000       0.157228         4.2784 
  34   0.0000       0.157228         4.2784 
  35   0.0000       0.157816         4.2944 
  36   0.0000       0.184848         5.0300 
  37   0.0000       0.186605         5.0778 
  38   0.0000       0.186605         5.0778 
  39   0.0000       0.204452         5.5634 
  40   0.0000       0.207628         5.6499 
  41   0.0000       0.216337         5.8868 
  42   0.0000       0.216338         5.8868 
  43   0.0000       0.217354         5.9145 
  44   0.0000       0.234691         6.3863 
  45   0.0000       0.260876         7.0988 
  46   0.0000       0.260876         7.0988 
  47   0.0000       0.263883         7.1806 
  48   0.0000       0.274599         7.4722 
  49   0.0000       0.304384         8.2827 
  50   0.0000       0.330306         8.9881 
  51   0.0000       0.330306         8.9881 
  52   0.0000       0.344797         9.3824 
  53   0.0000       0.347881         9.4663 
  54   0.0000       0.347881         9.4663 
  55   0.0000       0.350371         9.5341 
  56   0.0000       0.366041         9.9605 
  57   0.0000       0.376025        10.2322 
  58   0.0000       0.392993        10.6939 
  59   0.0000       0.392993        10.6939 
  60   0.0000       0.395896        10.7729 
  61   0.0000       0.396200        10.7811 
  62   0.0000       0.409987        11.1563 
  63   0.0000       0.409987        11.1563 
  64   0.0000       0.413243        11.2449 
  65   0.0000       0.433530        11.7970 
  66   0.0000       0.433530        11.7970 
  67   0.0000       0.446138        12.1400 
  68   0.0000       0.451459        12.2848 
  69   0.0000       0.451853        12.2955 
  70   0.0000       0.469786        12.7835 
  71   0.0000       0.469786        12.7835 
  72   0.0000       0.525662        14.3040 
  73   0.0000       0.525663        14.3040 
  74   0.0000       0.526121        14.3165 
  75   0.0000       0.544684        14.8216 
  76   0.0000       0.556783        15.1508 
  77   0.0000       0.614854        16.7310 
  78   0.0000       0.614855        16.7310 
  79   0.0000       0.616049        16.7636 
  80   0.0000       0.618971        16.8431 
  81   0.0000       0.642373        17.4799 
  82   0.0000       0.703773        19.1506 
  83   0.0000       0.703775        19.1507 
  84   0.0000       0.725209        19.7339 
  85   0.0000       0.740210        20.1421 
  86   0.0000       0.752320        20.4717 
  87   0.0000       0.754869        20.5410 
  88   0.0000       0.754869        20.5410 
  89   0.0000       0.773009        21.0346 
  90   0.0000       0.774128        21.0651 
  91   0.0000       0.774129        21.0651 
  92   0.0000       0.781281        21.2597 
  93   0.0000       0.804040        21.8790 
  94   0.0000       0.814167        22.1546 
  95   0.0000       0.814168        22.1546 
  96   0.0000       0.837979        22.8026 
  97   0.0000       0.840705        22.8768 
  98   0.0000       0.840706        22.8768 
  99   0.0000       0.881662        23.9912 
 100   0.0000       0.891714        24.2648 
 101   0.0000       0.891714        24.2648 
 102   0.0000       0.899615        24.4798 
 103   0.0000       0.911383        24.8000 
 104   0.0000       0.922482        25.1020 
 105   0.0000       0.925416        25.1818 
 106   0.0000       0.925416        25.1819 
 107   0.0000       0.936948        25.4957 
 108   0.0000       0.936949        25.4957 
 109   0.0000       0.943962        25.6865 
 110   0.0000       0.948482        25.8095 
 111   0.0000       0.962503        26.1910 
 112   0.0000       0.984925        26.8012 
 113   0.0000       0.987556        26.8728 
 114   0.0000       1.000069        27.2133 
 115   0.0000       1.000070        27.2133 
 116   0.0000       1.010763        27.5043 
 117   0.0000       1.021040        27.7839 
 118   0.0000       1.068333        29.0708 
 119   0.0000       1.068333        29.0708 
 120   0.0000       1.098125        29.8815 
 121   0.0000       1.117496        30.4086 
 122   0.0000       1.117496        30.4086 
 123   0.0000       1.120447        30.4889 
 124   0.0000       1.129547        30.7365 
 125   0.0000       1.134981        30.8844 
 126   0.0000       1.168431        31.7946 
 127   0.0000       1.168433        31.7947 
 128   0.0000       1.176808        32.0226 
 129   0.0000       1.181922        32.1617 
 130   0.0000       1.181923        32.1617 
 131   0.0000       1.227013        33.3887 
 132   0.0000       1.230104        33.4728 
 133   0.0000       1.238867        33.7113 
 134   0.0000       1.238867        33.7113 
 135   0.0000       1.242200        33.8020 
 136   0.0000       1.252454        34.0810 
 137   0.0000       1.315611        35.7996 
 138   0.0000       1.315612        35.7996 
 139   0.0000       1.337935        36.4071 
 140   0.0000       1.337935        36.4071 
 141   0.0000       1.340151        36.4674 
 142   0.0000       1.342203        36.5232 
 143   0.0000       1.364058        37.1179 
 144   0.0000       1.423519        38.7359 
 145   0.0000       1.433457        39.0064 
 146   0.0000       1.448141        39.4059 
 147   0.0000       1.448142        39.4059 
 148   0.0000       1.479106        40.2485 
 149   0.0000       1.479107        40.2485 
 150   0.0000       1.482904        40.3519 
 151   0.0000       1.502544        40.8863 
 152   0.0000       1.562926        42.5294 
 153   0.0000       1.582856        43.0717 
 154   0.0000       1.583666        43.0937 
 155   0.0000       1.583666        43.0937 
 156   0.0000       1.610988        43.8372 
 157   0.0000       1.631878        44.4056 
 158   0.0000       1.640623        44.6436 
 159   0.0000       1.682979        45.7962 
 160   0.0000       1.682979        45.7962 
 161   0.0000       1.707735        46.4698 
 162   0.0000       1.722787        46.8794 
 163   0.0000       1.722787        46.8794 
 164   0.0000       1.724513        46.9264 
 165   0.0000       1.755401        47.7669 
 166   0.0000       1.755402        47.7669 
 167   0.0000       1.756010        47.7835 
 168   0.0000       1.790077        48.7105 
 169   0.0000       1.918834        52.2141 
 170   0.0000       1.918834        52.2141 
 171   0.0000       1.918951        52.2173 
 172   0.0000       1.940069        52.7920 
 173   0.0000       1.947192        52.9858 
 174   0.0000       1.947193        52.9858 
 175   0.0000       1.955343        53.2076 
 176   0.0000       2.006504        54.5997 
 177   0.0000       2.084688        56.7272 
 178   0.0000       2.084688        56.7273 
 179   0.0000       2.163803        58.8801 
 180   0.0000       2.185615        59.4736 
 181   0.0000       2.296301        62.4855 
 182   0.0000       2.296302        62.4855 
 183   0.0000       2.297840        62.5274 
 184   0.0000       2.317420        63.0602 
 185   0.0000       2.322126        63.1883 
 186   0.0000       2.322127        63.1883 
 187   0.0000       2.351313        63.9825 
 188   0.0000       2.382428        64.8292 
 189   0.0000       2.382428        64.8292 
 190   0.0000       2.383219        64.8507 
 191   0.0000       2.396185        65.2035 
 192   0.0000       2.450891        66.6921 
 193   0.0000       2.455726        66.8237 
 194   0.0000       2.455726        66.8237 
 195   0.0000       2.464052        67.0503 
 196   0.0000       2.469730        67.2048 
 197   0.0000       2.488441        67.7139 
 198   0.0000       2.488442        67.7139 
 199   0.0000       2.507899        68.2434 
 200   0.0000       2.536634        69.0253 
 201   0.0000       2.568944        69.9045 
 202   0.0000       2.568944        69.9045 
 203   0.0000       2.572248        69.9944 
 204   0.0000       2.634469        71.6876 
 205   0.0000       2.663092        72.4664 
 206   0.0000       2.683741        73.0283 
 207   0.0000       2.683742        73.0283 
 208   0.0000       2.714574        73.8673 
 209   0.0000       2.744245        74.6747 
 210   0.0000       2.744246        74.6747 
 211   0.0000       2.748395        74.7876 
 212   0.0000       2.801877        76.2429 
 213   0.0000       2.804066        76.3025 
 214   0.0000       2.810333        76.4730 
 215   0.0000       2.817206        76.6601 
 216   0.0000       2.817206        76.6601 
 217   0.0000       2.834981        77.1438 
 218   0.0000       2.858449        77.7823 
 219   0.0000       2.899276        78.8933 
 220   0.0000       2.899276        78.8933 
 221   0.0000       2.967318        80.7448 
 222   0.0000       2.974421        80.9381 
 223   0.0000       2.974421        80.9381 
 224   0.0000       2.991789        81.4107 
 225   0.0000       3.003650        81.7335 
 226   0.0000       3.047433        82.9249 
 227   0.0000       3.047433        82.9249 
 228   0.0000       3.117479        84.8309 
 229   0.0000       3.137411        85.3733 
 230   0.0000       3.137412        85.3733 
 231   0.0000       3.169898        86.2573 
 232   0.0000       3.773584       102.6844 
 233   0.0000       3.800212       103.4090 
 234   0.0000       3.800212       103.4090 
 235   0.0000       3.820330       103.9565 
 236   0.0000       3.935478       107.0898 
 237   0.0000       4.006947       109.0346 
 238   0.0000       4.006947       109.0346 
 239   0.0000       4.042121       109.9917 
 240   0.0000       4.057409       110.4077 
 241   0.0000       4.057409       110.4077 
 242   0.0000       4.061697       110.5244 
 243   0.0000       4.089977       111.2939 
 244   0.0000       4.153324       113.0177 
 245   0.0000       4.153324       113.0177 
 246   0.0000       4.171660       113.5166 
 247   0.0000       4.182161       113.8024 
 248   0.0000       4.184986       113.8792 
 249   0.0000       4.184986       113.8792 
 250   0.0000       4.218522       114.7918 
 251   0.0000       4.225435       114.9799 
 252   0.0000       4.237508       115.3085 
 253   0.0000       4.278798       116.4320 
 254   0.0000       4.278798       116.4320 
 255   0.0000       4.319052       117.5274 
 256   0.0000       4.338058       118.0446 
 257   0.0000       4.387796       119.3980 
 258   0.0000       4.413885       120.1079 
 259   0.0000       4.413885       120.1079 
 260   0.0000       4.431645       120.5912 
 261   0.0000       4.459294       121.3436 
 262   0.0000       4.459294       121.3436 
 263   0.0000       4.466046       121.5273 
 264   0.0000       4.493218       122.2667 
 265   0.0000       4.506713       122.6339 
 266   0.0000       4.506713       122.6339 
 267   0.0000       4.517882       122.9378 
 268   0.0000       4.585340       124.7734 
 269   0.0000       4.592076       124.9567 
 270   0.0000       4.617942       125.6606 
 271   0.0000       4.617942       125.6606 
 272   0.0000       4.636822       126.1744 
 273   0.0000       4.636823       126.1744 
 274   0.0000       4.644699       126.3887 
 275   0.0000       4.672954       127.1576 
 276   0.0000       4.787007       130.2611 
 277   0.0000       4.787008       130.2611 
 278   0.0000       4.832207       131.4910 
 279   0.0000       4.861066       132.2763 
 280   0.0000       4.925112       134.0191 
 281   0.0000       4.955701       134.8515 
 282   0.0000       4.962991       135.0498 
 283   0.0000       4.962991       135.0499 
 284   0.0000       5.041861       137.1960 
 285   0.0000       5.050500       137.4311 
 286   0.0000       5.077011       138.1525 
 287   0.0000       5.077011       138.1525 
 288   0.0000       5.184742       141.0840 
 289   0.0000       5.185537       141.1056 
 290   0.0000       5.187628       141.1625 
 291   0.0000       5.187628       141.1625 
 292   0.0000       5.235733       142.4715 
 293   0.0000       5.235733       142.4715 
 294   0.0000       5.256105       143.0259 
 295   0.0000       5.259523       143.1189 
 296   0.0000       5.281180       143.7082 
 297   0.0000       5.391083       146.6988 
 298   0.0000       5.391084       146.6988 
 299   0.0000       5.452223       148.3625 
 300   0.0000       5.457374       148.5027 
 301   0.0000       5.573545       151.6639 
 302   0.0000       5.573545       151.6639 
 303   0.0000       5.637448       153.4028 
 304   0.0000       5.720782       155.6704 
 305   0.0000       5.720782       155.6704 
 306   0.0000       5.765296       156.8817 
 307   0.0000       5.766131       156.9044 
 308   0.0000       6.244983       169.9346 
 309   0.0000       6.259564       170.3314 
 310   0.0000       6.261572       170.3860 
 311   0.0000       6.261572       170.3860 
 312   0.0000       6.397619       174.0881 
 313   0.0000       6.433783       175.0721 
 314   0.0000       6.433784       175.0722 
 315   0.0000       6.461853       175.8360 
 316   0.0000       6.704690       182.4439 
 317   0.0000       6.743973       183.5128 
 318   0.0000       6.744810       183.5356 
 319   0.0000       6.744810       183.5356 
 320   0.0000       6.824309       185.6989 
 321   0.0000       6.860446       186.6822 
 322   0.0000       6.860446       186.6822 
 323   0.0000       6.872647       187.0142 
 324   0.0000       7.026829       191.2097 
 325   0.0000       7.060627       192.1294 
 326   0.0000       7.060627       192.1294 
 327   0.0000       7.068930       192.3554 
 328   0.0000       7.115067       193.6108 
 329   0.0000       7.150731       194.5813 
 330   0.0000       7.191840       195.6999 
 331   0.0000       7.191840       195.6999 
 332   0.0000       7.241074       197.0396 
 333   0.0000       7.250846       197.3056 
 334   0.0000       7.262564       197.6244 
 335   0.0000       7.262564       197.6244 
 336   0.0000       7.272583       197.8971 
 337   0.0000       7.293783       198.4739 
 338   0.0000       7.293783       198.4739 
 339   0.0000       7.295457       198.5195 
 340   0.0000       7.347805       199.9440 
 341   0.0000       7.349515       199.9905 
 342   0.0000       7.349515       199.9905 
 343   0.0000       7.371042       200.5762 
 344   0.0000       7.418140       201.8579 
 345   0.0000       7.422740       201.9830 
 346   0.0000       7.422740       201.9830 
 347   0.0000       7.502165       204.1443 
 348   0.0000       7.661701       208.4855 
 349   0.0000       7.730540       210.3587 
 350   0.0000       7.784850       211.8365 
 351   0.0000       7.784850       211.8365 
 352   0.0000       7.862824       213.9583 
 353   0.0000       7.867608       214.0885 
 354   0.0000       7.867608       214.0885 
 355   0.0000       7.893980       214.8061 
 356   0.0000       7.928953       215.7578 
 357   0.0000       7.961653       216.6476 
 358   0.0000       7.961653       216.6476 
 359   0.0000       8.075975       219.7584 
 360   0.0000       8.810740       239.7524 
 361   0.0000       8.828641       240.2395 
 362   0.0000       8.828642       240.2396 
 363   0.0000       8.888900       241.8793 
 364   0.0000      15.976302       434.7373 
 365   0.0000      16.930349       460.6982 
 366   0.0000      16.930350       460.6982 
 367   0.0000      17.508247       476.4236 

                    ********************************
                    * MULLIKEN POPULATION ANALYSIS *
                    ********************************

-----------------------
MULLIKEN ATOMIC CHARGES
-----------------------
   0 O :   -0.465970
   1 H :    0.306910
   2 H :    0.159059
   3 O :   -0.465969
   4 H :    0.306909
   5 H :    0.159060
   6 O :   -0.465968
   7 H :    0.306909
   8 H :    0.159059
   9 O :   -0.465969
  10 H :    0.306910
  11 H :    0.159059
Sum of atomic charges:    0.0000000

--------------------------------
MULLIKEN REDUCED ORBITAL CHARGES
--------------------------------
  0 O s       :     3.891023  s :     3.891023
      pz      :     1.505461  p :     4.561489
      px      :     1.371352
      py      :     1.684675
      dz2     :     0.002486  d :     0.013170
      dxz     :     0.000947
      dyz     :     0.003034
      dx2y2   :     0.004980
      dxy     :     0.001723
      f0      :     0.000022  f :     0.000289
      f+1     :    -0.000036
      f-1     :     0.000214
      f+2     :     0.000110
      f-2     :     0.000075
      f+3     :     0.000019
      f-3     :    -0.000115
  1 H s       :     0.577382  s :     0.577382
      pz      :     0.036581  p :     0.070697
      px      :    -0.009686
      py      :     0.043802
      dz2     :     0.001735  d :     0.045010
      dxz     :     0.016102
      dyz     :    -0.000007
      dx2y2   :     0.005708
      dxy     :     0.021472
  2 H s       :     0.712118  s :     0.712118
      pz      :     0.029026  p :     0.110854
      px      :     0.034801
      py      :     0.047027
      dz2     :     0.006977  d :     0.017968
      dxz     :     0.002266
      dyz     :     0.002837
      dx2y2   :     0.003848
      dxy     :     0.002041
  3 O s       :     3.891023  s :     3.891023
      pz      :     1.505461  p :     4.561488
      px      :     1.684675
      py      :     1.371352
      dz2     :     0.002486  d :     0.013169
      dxz     :     0.003034
      dyz     :     0.000947
      dx2y2   :     0.004980
      dxy     :     0.001723
      f0      :     0.000022  f :     0.000289
      f+1     :     0.000214
      f-1     :    -0.000036
      f+2     :     0.000110
      f-2     :     0.000075
      f+3     :    -0.000115
      f-3     :     0.000019
  4 H s       :     0.577383  s :     0.577383
      pz      :     0.036582  p :     0.070697
      px      :     0.043802
      py      :    -0.009686
      dz2     :     0.001735  d :     0.045010
      dxz     :    -0.000007
      dyz     :     0.016102
      dx2y2   :     0.005708
      dxy     :     0.021472
  5 H s       :     0.712118  s :     0.712118
      pz      :     0.029026  p :     0.110854
      px      :     0.047027
      py      :     0.034801
      dz2     :     0.006977  d :     0.017968
      dxz     :     0.002837
      dyz     :     0.002266
      dx2y2   :     0.003848
      dxy     :     0.002041
  6 O s       :     3.891022  s :     3.891022
      pz      :     1.505461  p :     4.561487
      px      :     1.371351
      py      :     1.684675
      dz2     :     0.002486  d :     0.013169
      dxz     :     0.000947
      dyz     :     0.003034
      dx2y2   :     0.004980
      dxy     :     0.001723
      f0      :     0.000022  f :     0.000289
      f+1     :    -0.000036
      f-1     :     0.000214
      f+2     :     0.000110
      f-2     :     0.000075
      f+3     :     0.000019
      f-3     :    -0.000115
  7 H s       :     0.577384  s :     0.577384
      pz      :     0.036581  p :     0.070697
      px      :    -0.009686
      py      :     0.043802
      dz2     :     0.001735  d :     0.045010
      dxz     :     0.016102
      dyz     :    -0.000007
      dx2y2   :     0.005708
      dxy     :     0.021472
  8 H s       :     0.712118  s :     0.712118
      pz      :     0.029025  p :     0.110854
      px      :     0.034801
      py      :     0.047028
      dz2     :     0.006977  d :     0.017968
      dxz     :     0.002266
      dyz     :     0.002837
      dx2y2   :     0.003848
      dxy     :     0.002041
  9 O s       :     3.891023  s :     3.891023
      pz      :     1.505460  p :     4.561487
      px      :     1.684676
      py      :     1.371352
      dz2     :     0.002486  d :     0.013170
      dxz     :     0.003034
      dyz     :     0.000947
      dx2y2   :     0.004980
      dxy     :     0.001723
      f0      :     0.000022  f :     0.000289
      f+1     :     0.000214
      f-1     :    -0.000036
      f+2     :     0.000110
      f-2     :     0.000075
      f+3     :    -0.000115
      f-3     :     0.000019
 10 H s       :     0.577384  s :     0.577384
      pz      :     0.036581  p :     0.070696
      px      :     0.043802
      py      :    -0.009687
      dz2     :     0.001735  d :     0.045010
      dxz     :    -0.000007
      dyz     :     0.016102
      dx2y2   :     0.005708
      dxy     :     0.021472
 11 H s       :     0.712119  s :     0.712119
      pz      :     0.029026  p :     0.110854
      px      :     0.047028
      py      :     0.034801
      dz2     :     0.006977  d :     0.017968
      dxz     :     0.002837
      dyz     :     0.002266
      dx2y2   :     0.003848
      dxy     :     0.002041


                     *******************************
                     * LOEWDIN POPULATION ANALYSIS *
                     *******************************

----------------------
LOEWDIN ATOMIC CHARGES
----------------------
   0 O :    1.114438
   1 H :   -0.657841
   2 H :   -0.456596
   3 O :    1.114438
   4 H :   -0.657842
   5 H :   -0.456595
   6 O :    1.114439
   7 H :   -0.657842
   8 H :   -0.456596
   9 O :    1.114438
  10 H :   -0.657841
  11 H :   -0.456597

-------------------------------
LOEWDIN REDUCED ORBITAL CHARGES
-------------------------------
  0 O s       :     2.950478  s :     2.950478
      pz      :     1.286558  p :     3.819591
      px      :     1.218627
      py      :     1.314406
      dz2     :     0.020201  d :     0.097704
      dxz     :     0.010232
      dyz     :     0.018234
      dx2y2   :     0.039664
      dxy     :     0.009373
      f0      :     0.000329  f :     0.017789
      f+1     :     0.002992
      f-1     :     0.004921
      f+2     :     0.001042
      f-2     :     0.001991
      f+3     :     0.003968
      f-3     :     0.002545
  1 H s       :     0.536655  s :     0.536655
      pz      :     0.138426  p :     0.616573
      px      :     0.338239
      py      :     0.139907
      dz2     :     0.049986  d :     0.504614
      dxz     :     0.155506
      dyz     :     0.001539
      dx2y2   :     0.152843
      dxy     :     0.144740
  2 H s       :     0.580234  s :     0.580234
      pz      :     0.219179  p :     0.528277
      px      :     0.136378
      py      :     0.172720
      dz2     :     0.106579  d :     0.348085
      dxz     :     0.074466
      dyz     :     0.083251
      dx2y2   :     0.048182
      dxy     :     0.035607
  3 O s       :     2.950478  s :     2.950478
      pz      :     1.286558  p :     3.819591
      px      :     1.314405
      py      :     1.218627
      dz2     :     0.020201  d :     0.097704
      dxz     :     0.018234
      dyz     :     0.010232
      dx2y2   :     0.039664
      dxy     :     0.009373
      f0      :     0.000329  f :     0.017789
      f+1     :     0.004921
      f-1     :     0.002992
      f+2     :     0.001042
      f-2     :     0.001991
      f+3     :     0.002545
      f-3     :     0.003968
  4 H s       :     0.536655  s :     0.536655
      pz      :     0.138426  p :     0.616573
      px      :     0.139908
      py      :     0.338239
      dz2     :     0.049986  d :     0.504614
      dxz     :     0.001539
      dyz     :     0.155506
      dx2y2   :     0.152843
      dxy     :     0.144740
  5 H s       :     0.580234  s :     0.580234
      pz      :     0.219179  p :     0.528277
      px      :     0.172720
      py      :     0.136378
      dz2     :     0.106579  d :     0.348085
      dxz     :     0.083251
      dyz     :     0.074466
      dx2y2   :     0.048182
      dxy     :     0.035607
  6 O s       :     2.950477  s :     2.950477
      pz      :     1.286558  p :     3.819591
      px      :     1.218627
      py      :     1.314405
      dz2     :     0.020201  d :     0.097704
      dxz     :     0.010232
      dyz     :     0.018234
      dx2y2   :     0.039664
      dxy     :     0.009373
      f0      :     0.000329  f :     0.017789
      f+1     :     0.002992
      f-1     :     0.004921
      f+2     :     0.001042
      f-2     :     0.001991
      f+3     :     0.003968
      f-3     :     0.002545
  7 H s       :     0.536655  s :     0.536655
      pz      :     0.138426  p :     0.616573
      px      :     0.338239
      py      :     0.139908
      dz2     :     0.049986  d :     0.504614
      dxz     :     0.155506
      dyz     :     0.001539
      dx2y2   :     0.152843
      dxy     :     0.144740
  8 H s       :     0.580234  s :     0.580234
      pz      :     0.219179  p :     0.528277
      px      :     0.136378
      py      :     0.172720
      dz2     :     0.106579  d :     0.348085
      dxz     :     0.074466
      dyz     :     0.083251
      dx2y2   :     0.048182
      dxy     :     0.035607
  9 O s       :     2.950478  s :     2.950478
      pz      :     1.286558  p :     3.819591
      px      :     1.314406
      py      :     1.218627
      dz2     :     0.020202  d :     0.097704
      dxz     :     0.018234
      dyz     :     0.010232
      dx2y2   :     0.039664
      dxy     :     0.009373
      f0      :     0.000329  f :     0.017789
      f+1     :     0.004921
      f-1     :     0.002992
      f+2     :     0.001042
      f-2     :     0.001991
      f+3     :     0.002545
      f-3     :     0.003968
 10 H s       :     0.536655  s :     0.536655
      pz      :     0.138426  p :     0.616573
      px      :     0.139907
      py      :     0.338239
      dz2     :     0.049986  d :     0.504614
      dxz     :     0.001539
      dyz     :     0.155506
      dx2y2   :     0.152843
      dxy     :     0.144740
 11 H s       :     0.580234  s :     0.580234
      pz      :     0.219179  p :     0.528278
      px      :     0.172720
      py      :     0.136379
      dz2     :     0.106579  d :     0.348085
      dxz     :     0.083251
      dyz     :     0.074466
      dx2y2   :     0.048182
      dxy     :     0.035607


                      *****************************
                      * MAYER POPULATION ANALYSIS *
                      *****************************

  NA   - Mulliken gross atomic population
  ZA   - Total nuclear charge
  QA   - Mulliken gross atomic charge
  VA   - Mayer's total valence
  BVA  - Mayer's bonded valence
  FA   - Mayer's free valence

  ATOM       NA         ZA         QA         VA         BVA        FA
  0 O      8.4660     8.0000    -0.4660     1.9085     1.9085     0.0000
  1 H      0.6931     1.0000     0.3069     0.9581     0.9581     0.0000
  2 H      0.8409     1.0000     0.1591     1.0960     1.0960     0.0000
  3 O      8.4660     8.0000    -0.4660     1.9085     1.9085     0.0000
  4 H      0.6931     1.0000     0.3069     0.9581     0.9581    -0.0000
  5 H      0.8409     1.0000     0.1591     1.0960     1.0960     0.0000
  6 O      8.4660     8.0000    -0.4660     1.9085     1.9085     0.0000
  7 H      0.6931     1.0000     0.3069     0.9581     0.9581    -0.0000
  8 H      0.8409     1.0000     0.1591     1.0960     1.0960     0.0000
  9 O      8.4660     8.0000    -0.4660     1.9085     1.9085     0.0000
 10 H      0.6931     1.0000     0.3069     0.9581     0.9581     0.0000
 11 H      0.8409     1.0000     0.1591     1.0960     1.0960    -0.0000

  Mayer bond orders larger than 0.100000
B(  0-O ,  1-H ) :   0.8658 B(  0-O ,  2-H ) :   1.0618 B(  3-O ,  4-H ) :   0.8658 
B(  3-O ,  5-H ) :   1.0618 B(  6-O ,  7-H ) :   0.8658 B(  6-O ,  8-H ) :   1.0618 
B(  9-O , 10-H ) :   0.8658 B(  9-O , 11-H ) :   1.0618 

-------
TIMINGS
-------

Total SCF time: 0 days 0 hours 0 min 5 sec 

Total time                  ....       5.749 sec
Sum of individual times     ....       5.466 sec  ( 95.1%)

Fock matrix formation       ....       4.550 sec  ( 79.2%)
  XC integration            ....       1.069 sec  ( 23.5% of F)
    Basis function eval.    ....       0.187 sec  ( 17.4% of XC)
    Density eval.           ....       0.208 sec  ( 19.4% of XC)
    XC-Functional eval.     ....       0.024 sec  (  2.2% of XC)
    XC-Potential eval.      ....       0.368 sec  ( 34.4% of XC)
Diagonalization             ....       0.194 sec  (  3.4%)
Density matrix formation    ....       0.021 sec  (  0.4%)
Population analysis         ....       0.020 sec  (  0.4%)
Initial guess               ....       0.195 sec  (  3.4%)
Orbital Transformation      ....       0.000 sec  (  0.0%)
Orbital Orthonormalization  ....       0.000 sec  (  0.0%)
DIIS solution               ....       0.099 sec  (  1.7%)
SOSCF solution              ....       0.064 sec  (  1.1%)
Grid generation             ....       0.324 sec  (  5.6%)


           ************************************************************
           *        Program running with 24 parallel MPI-processes    *
           *              working on a common directory               *
           ************************************************************

------------------------------------------------------------------------------
                                ORCA  MP2 
------------------------------------------------------------------------------

Freezing NCore=8 chemical core electrons

----------------------
RI-MP2 ENERGY+GRADIENT
----------------------
Dimension of the basis                    ...  368
Memory devoted to MP2                     ... 5000 MB   
Data format for buffers                   ... DOUBLE
Compression type for matrix containers    ... UNCOMPRESSED
Scaling for aa/bb pairs                   ...   4.000e-01
Scaling for ab pairs                      ...   4.700e-01
Overall scaling of the MP2 energy         ...   1.000e+00
Calculating two index integrals           ... done (    0.002 sec)
Cholesky decomposition of the V-matrix    ... done
Cholesky decomposition of V**-1           ... done (    0.009 sec)

-----------------
RI-TRANSFORMATION (AUX index driven)
-----------------

Dimension of the orbital-basis         ... 368
Dimension of the aux-basis             ... 424
Transformation of internal MOs         ...    0-  19
Transformation of internal/external MOs...    0-  19 to   20- 367
Number Format for Storage              ... Double (8 Byte)
Integral mode                          ... Direct

First Phase: integral generation and transformation of MO indices
  Aux angular momentum 0               ... done (    0.010 sec)
  Aux angular momentum 1               ... done (    0.014 sec)
  Aux angular momentum 2               ... done (    0.012 sec)
  Aux angular momentum 3               ... done (    0.017 sec)
  Aux angular momentum 4               ... done (    0.022 sec)
Closing buffer VIJ ( 0.00 GB; CompressionRatio= 0.99)
Closing buffer VIA ( 0.02 GB; CompressionRatio= 1.00)
  Phase 1 completed in     0.193 sec
Second Phase: sorting and transformation of aux index

IJ-Transformation
Memory available                       ... 4985 MB 
Max. # MO pairs treated in a batch     ... 1    
# of internal orbitals                 ... 20
# batches for internal orbitals        ... 1
Closing buffer IJV ( 0.00 GB; CompressionRatio= 1.00)
(ij|v) transformation done in     0.009 sec

IA-Transformation
Memory available                       ... 4985 MB 
Max. # MO pairs treated in a batch     ... 1    
# of internal orbitals                 ... 20
# batches for internal orbitals        ... 1
Closing buffer IAV ( 0.00 GB; CompressionRatio= 1.00)
(ia|v) transformation done in     0.012 sec

  Phase 2 completed in     0.047 sec
RI-Integral transformation completed in     0.244 sec
Opening buffers                              ... done
Frozen core precalculation                   ... done

Starting loop over batches of integrals:

Operator 0  - window                       ... (  4- 19)x( 20-367)
Operator 0  - Memory available             ...  5000 MB
Operator 0  - Memory needed per MO         ...   2.3 MB
Operator 0  - Number of orbitals per batch ... 1
Operator 0  - Number of batches            ... 1

OPERATOR  0   PASS   0:  MOs     4 ...    4 +    5 ...    5 +    6 ...    6 +    7 ...    7
                            +    8 ...    8 +    9 ...    9 +   10 ...   10 +   11 ...   11
                            +   12 ...   12 +   13 ...   13 +   14 ...   14 +   15 ...   15
                            +   16 ...   16 +   17 ...   17 +   18 ...   18 +   19 ...   19
  Reading integrals       ... ok
Closing buffer GIPV ( 0.00 GB; CompressionRatio= 1.00)
Time spent in pair loops =     1.179 sec
Deleting buffer (Ka|jb)[aa] ...done

-----------------------------------------------
 RI-MP2 CORRELATION ENERGY:     -0.546400948 Eh
-----------------------------------------------


---------------------
MP2 DENSITY FORMATION
---------------------

Completing the external part of the density      ... done
Storing the unrelaxed density                    ... done

Calculating the xc-kernel                        ... done
Calculating G(D)                                 ... done
Completing the Lagrangian                        ... done
Solving the Z-vector equations                   ... 

------------------------------------------------------------------------------
                           ORCA CP-SCF CALCULATION
------------------------------------------------------------------------------

Input orbitals are from        ... 04_H2O_4.gbw
Input Perturbation             ... 04_H2O_4.pin.tmp
Wavefunction output            ... 04_H2O_4.pout.tmp
Perturbation mode              ... Real perturbation (singlet)
Solver                         ... POPLE
Max. number of iterations      ... 128
Convergence tolerance          ... 1.000e-08
Integral handling              ... Direct
Number of perturbations        ... 1
Number of operators            ... 1
Orbital ranges used for CP-SCF:
 Operator 0:  Orbitals   0... 19  to  20...367
DFT calculation                         ... on
Exchange functional (SCF)               ... B88
Exchange functional (CP-SCF)            ... B88
   X-Alpha parameter    XAlpha (SCF)    ...  0.666667
   X-Alpha parameter    XAlpha (CP-SCF) ...  0.666667
   Becke's b parameter  XBeta (SCF)     ...  0.004200
   Becke's b parameter  XBeta (CP-SCF)  ...  0.004200
Correlation functional (SCF)            ... LYP
Correlation functional (CP-SCF)         ... LYP
 LDA part of GGA corr.  LDAOpt (SCF)    ... VWN-5
 LDA part of GGA corr.  LDAOpt (CP-SCF) ... VWN-5
Hybrid DFT                              ... on
   Exchange mixing (SCF)                ...  0.710
   Exchange mixing (CP-SCF)             ...  0.710
   GGA exch. scaling(SCF)               ...  0.290
   GGA exch. scaling (CP-SCF)           ...  0.290
   GGA corr. scaling (SCF)              ...  0.540
   GGA corr. scaling (CP-SCF)           ...  0.540
Variables per vector in CP-SCF ... 6960
Number of vectors sought       ... 1
Recalculating density on grid  ... done
Calculating the xc-kernel      ... done
     CP-SCF ITERATION   0: 
     CP-SCF ITERATION   1:      0.000071981258
     CP-SCF ITERATION   2:      0.000003409908
     CP-SCF ITERATION   3:      0.000000093731
     CP-SCF ITERATION   4:      0.000000003246
done
Finalizing the relaxed density                   ... done
Transforming P to the AO basis                   ... done
Storing the relaxed density                      ... done

------------------------------------
ENERGY WEIGHTED DENSITY FINALIZATION
------------------------------------

Gathering the parts of the W-matrix              ... done
Forming the Z-density                            ... done
Transforming Z to the AO basis                   ... done
Calculating G(Z)                                 ... done
Finalizing the W-matrix                          ... done
Transforming W to the AO basis and storing       ... done
Entering the RIJONX and RIJCOSX sections
Starting the three-index derivative integrals:
Operator 0  - Memory available             ...  5000 MB
Operator 0  - Memory needed per MO         ...   2.4 MB
Operator 0  - Number of orbitals per batch ... 1
Operator 0  - Number of batches            ... 1

OPERATOR  0   PASS   0:  MOs     4 ...    4 +    5 ...    5 +    6 ...    6 +    7 ...    7
                            +    8 ...    8 +    9 ...    9 +   10 ...   10 +   11 ...   11
                            +   12 ...   12 +   13 ...   13 +   14 ...   14 +   15 ...   15
                            +   16 ...   16 +   17 ...   17 +   18 ...   18 +   19 ...   19

----------------------------------
MP2 DERIVATIVE INTEGRAL GENERATION
----------------------------------


Input Correlated Electron Density   ... 04_H2O_4.pmp2re
Input Energy Weighted Density       ... 04_H2O_4.wmp2.tmp
Input SCF Electron Density          ... 04_H2O_4.scfp

One-Electron Terms    ...
                        ... One-Electron Terms done
Prescreening matrices              ... done
Exchange-correlation gradient    ... done
Dispersion correction            ... done

                *********************************************
                * UNRELAXED MP2 DENSITY POPULATION ANALYSIS *
                *********************************************

------------------------------------------------------------------------------
                           ORCA POPULATION ANALYSIS
------------------------------------------------------------------------------
Input electron density              ... 04_H2O_4.pmp2ur
BaseName (.gbw .S,...)              ... 04_H2O_4

                    ********************************
                    * MULLIKEN POPULATION ANALYSIS *
                    ********************************

-----------------------
MULLIKEN ATOMIC CHARGES
-----------------------
   0 O :   -0.458234
   1 H :    0.302774
   2 H :    0.155459
   3 O :   -0.458233
   4 H :    0.302773
   5 H :    0.155460
   6 O :   -0.458232
   7 H :    0.302773
   8 H :    0.155459
   9 O :   -0.458233
  10 H :    0.302774
  11 H :    0.155458
Sum of atomic charges:    0.0000000

--------------------------------
MULLIKEN REDUCED ORBITAL CHARGES
--------------------------------
  0 O s       :     3.887797  s :     3.887797
      pz      :     1.497954  p :     4.539107
      px      :     1.364251
      py      :     1.676903
      dz2     :     0.005508  d :     0.028973
      dxz     :     0.004224
      dyz     :     0.006088
      dx2y2   :     0.008082
      dxy     :     0.005071
      f0      :     0.000313  f :     0.002356
      f+1     :     0.000256
      f-1     :     0.000508
      f+2     :     0.000398
      f-2     :     0.000364
      f+3     :     0.000328
      f-3     :     0.000190
  1 H s       :     0.581905  s :     0.581905
      pz      :     0.037425  p :     0.070565
      px      :    -0.011454
      py      :     0.044595
      dz2     :     0.001693  d :     0.044755
      dxz     :     0.016112
      dyz     :     0.000092
      dx2y2   :     0.005341
      dxy     :     0.021518
  2 H s       :     0.715478  s :     0.715478
      pz      :     0.028486  p :     0.111135
      px      :     0.035227
      py      :     0.047422
      dz2     :     0.006951  d :     0.017927
      dxz     :     0.002256
      dyz     :     0.002770
      dx2y2   :     0.003872
      dxy     :     0.002078
  3 O s       :     3.887797  s :     3.887797
      pz      :     1.497954  p :     4.539107
      px      :     1.676903
      py      :     1.364250
      dz2     :     0.005508  d :     0.028973
      dxz     :     0.006088
      dyz     :     0.004224
      dx2y2   :     0.008082
      dxy     :     0.005071
      f0      :     0.000313  f :     0.002356
      f+1     :     0.000508
      f-1     :     0.000256
      f+2     :     0.000398
      f-2     :     0.000364
      f+3     :     0.000190
      f-3     :     0.000328
  4 H s       :     0.581906  s :     0.581906
      pz      :     0.037425  p :     0.070565
      px      :     0.044595
      py      :    -0.011455
      dz2     :     0.001693  d :     0.044755
      dxz     :     0.000092
      dyz     :     0.016112
      dx2y2   :     0.005341
      dxy     :     0.021518
  5 H s       :     0.715478  s :     0.715478
      pz      :     0.028485  p :     0.111135
      px      :     0.047422
      py      :     0.035227
      dz2     :     0.006951  d :     0.017927
      dxz     :     0.002770
      dyz     :     0.002256
      dx2y2   :     0.003872
      dxy     :     0.002078
  6 O s       :     3.887796  s :     3.887796
      pz      :     1.497953  p :     4.539106
      px      :     1.364249
      py      :     1.676903
      dz2     :     0.005508  d :     0.028973
      dxz     :     0.004224
      dyz     :     0.006088
      dx2y2   :     0.008082
      dxy     :     0.005071
      f0      :     0.000313  f :     0.002356
      f+1     :     0.000256
      f-1     :     0.000508
      f+2     :     0.000398
      f-2     :     0.000364
      f+3     :     0.000328
      f-3     :     0.000190
  7 H s       :     0.581907  s :     0.581907
      pz      :     0.037425  p :     0.070565
      px      :    -0.011455
      py      :     0.044595
      dz2     :     0.001693  d :     0.044755
      dxz     :     0.016112
      dyz     :     0.000092
      dx2y2   :     0.005341
      dxy     :     0.021518
[...]
     13      -0.151101   0.067368   0.191258  -0.013324  -0.017375  -0.036839
     14      -0.136910   0.080804   0.050896   0.157446   0.312695  -0.115525
     15      -0.276907  -0.059194  -0.031829  -0.404638   0.043084   0.190371
     16      -0.389162   0.017983   0.246027   0.053613   0.338705  -0.308708
     17       0.337783   0.169561  -0.127700   0.237580  -0.161690   0.017065
     18      -0.090729  -0.134529  -0.194550  -0.000001  -0.023737  -0.009709
     19       0.167560  -0.115647  -0.196248  -0.034994   0.000203   0.003389
     20      -0.011996   0.030122   0.003933   0.033432  -0.022390   0.006170
     21      -0.066033  -0.155107  -0.188071  -0.012983  -0.017524   0.036966
     22       0.018927   0.020868  -0.238583   0.005915  -0.077500  -0.320393
     23       0.081265   0.137830   0.045374  -0.155801  -0.315199  -0.114769
     24      -0.015074  -0.393795  -0.233529   0.052412   0.341416   0.308114
     25      -0.068607   0.275977  -0.037314   0.408225  -0.040911   0.189885
     26       0.177514  -0.339013  -0.117108  -0.239499   0.161584   0.016961
     27       0.114970   0.171411   0.192533  -0.035243   0.000248  -0.003448
     28      -0.131089   0.087223  -0.200315   0.000074   0.023728  -0.009814
     29       0.030073   0.011754   0.003848  -0.033055   0.022620   0.006147
     30      -0.021880   0.022958   0.237832   0.004549  -0.078066   0.321285
     31      -0.151694   0.062498  -0.193262   0.012913   0.017398   0.036978
     32       0.135619  -0.082195   0.052341   0.157360   0.315177  -0.116384
     33      -0.279109  -0.065045   0.042672   0.402185  -0.042191  -0.190522
     34      -0.389081   0.012228  -0.241074  -0.055385  -0.341913   0.310205
     35      -0.340136  -0.177632  -0.111923   0.234709  -0.162475   0.017444
                 18         19         20         21         22         23    
      0      -0.034741  -0.005450  -0.010248  -0.018300  -0.012365   0.021072
      1      -0.011056   0.019700  -0.021249   0.015620  -0.007004  -0.008084
      2       0.006949   0.031155  -0.024281   0.005693  -0.019204  -0.004401
      3      -0.005512   0.006850  -0.069196   0.077030  -0.044257  -0.053461
      4      -0.243535  -0.005842   0.305562  -0.548527   0.154634   0.414564
      5       0.329682  -0.200852   0.343003  -0.327966   0.185220   0.231599
      6       0.436015  -0.161891   0.099114   0.062255   0.017799  -0.108737
      7       0.178712  -0.185227   0.146985   0.077811   0.107536  -0.096374
      8      -0.068134  -0.040187   0.042010   0.012498   0.045961  -0.005286
      9       0.019567   0.011153   0.021234  -0.007007  -0.015636  -0.008077
     10       0.005468  -0.035003  -0.010263   0.012377  -0.018295  -0.021073
     11      -0.031242   0.006961  -0.024230   0.019220   0.005693   0.004393
     12      -0.005797   0.245262  -0.305224   0.154642   0.548582   0.414620
     13      -0.006786  -0.005555  -0.069152   0.044272   0.077048   0.053466
     14       0.199382   0.331070   0.343047  -0.185165  -0.328319  -0.231636
     15      -0.185413  -0.179500  -0.147094   0.107471  -0.077578  -0.096353
     16       0.160559   0.438268   0.099417  -0.017723   0.061845   0.108632
     17       0.040710  -0.068602   0.041991  -0.045928   0.012506   0.005322
     18      -0.034835  -0.005579   0.010292  -0.018273  -0.012393  -0.021076
     19      -0.011158   0.019743   0.021219   0.015609  -0.006975   0.008091
     20      -0.006857  -0.031290  -0.024285  -0.005721   0.019261  -0.004392
     21      -0.005504   0.006537   0.069181   0.077090  -0.044342   0.053452
     22      -0.244346  -0.004917  -0.305252  -0.548696   0.155004  -0.414500
     23      -0.329663   0.198628   0.342615   0.328134  -0.185193   0.231588
     24       0.436436  -0.160329  -0.099057   0.062166   0.017587   0.108762
     25       0.179493  -0.185871  -0.147059   0.077686   0.107541   0.096400
     26       0.067851   0.041228   0.042128  -0.012454  -0.046049  -0.005291
     27       0.019779   0.011114  -0.021281  -0.007014  -0.015594   0.008068
     28       0.005457  -0.034654   0.010261   0.012382  -0.018306   0.021070
     29       0.031202  -0.006878  -0.024220  -0.019223  -0.005727   0.004392
     30      -0.004751   0.243052   0.305447   0.154801   0.548559  -0.414493
     31      -0.006671  -0.005469   0.069194   0.044307   0.077031  -0.053449
     32      -0.200098  -0.328051   0.343062   0.185403   0.328019  -0.231468
     33      -0.185651  -0.178346   0.146864   0.107570  -0.077713   0.096410
     34       0.161743   0.434187  -0.099188  -0.017770   0.062168  -0.108802
     35      -0.040536   0.067595   0.041973   0.045971  -0.012512   0.005285
                 24         25         26         27         28         29    
      0       0.017705   0.021457  -0.005091  -0.012160  -0.030063   0.019202
      1       0.018954   0.028627  -0.003523  -0.021756  -0.005271   0.004327
      2      -0.023897  -0.028799   0.008690   0.018829   0.001495  -0.001667
      3       0.023454   0.041325  -0.011346  -0.039473   0.488925  -0.324988
      4      -0.220822  -0.328212   0.055481   0.261852   0.074492  -0.046969
      5       0.318965   0.423932  -0.098206  -0.294561   0.019547  -0.015457
      6      -0.291714  -0.403855   0.078479   0.283231  -0.028803   0.023111
      7      -0.094531  -0.139842   0.022360   0.096918   0.032848  -0.031168
      8       0.060418   0.076572  -0.018993  -0.052743  -0.046519   0.042083
      9      -0.018954  -0.003544  -0.028594  -0.021791  -0.005272  -0.007448
     10       0.017724   0.005105   0.021435   0.012183   0.030065   0.036689
     11      -0.023921  -0.008705  -0.028759  -0.018857  -0.001495  -0.001415
     12       0.220829   0.055850   0.327812   0.262140   0.074487   0.083921
     13       0.023437   0.011417   0.041280   0.039490  -0.488945  -0.611182
     14       0.319226   0.098448   0.423510   0.295005  -0.019551  -0.030057
     15       0.094601   0.022454   0.139695   0.097044   0.032847   0.031398
     16      -0.291881  -0.078768  -0.403362  -0.283590   0.028808   0.038324
     17       0.060440   0.019067   0.076465   0.052812   0.046518   0.053779
     18      -0.017747   0.021468  -0.005077   0.012116   0.030065   0.019202
     19      -0.018986   0.028645  -0.003511   0.021695   0.005270   0.004328
     20      -0.023943   0.028803  -0.008665   0.018759   0.001495   0.001668
     21      -0.023533   0.041377  -0.011364   0.039370  -0.488950  -0.325002
     22       0.221286  -0.328478   0.055419  -0.261159  -0.074503  -0.046977
     23       0.319665  -0.424201   0.097923  -0.293643   0.019549   0.015460
     24       0.292270  -0.404057   0.078251  -0.282365   0.028797   0.023113
     25       0.094697  -0.139895   0.022276  -0.096626  -0.032841  -0.031179
     26       0.060470  -0.076562   0.018898  -0.052561  -0.046507  -0.042097
     27       0.018903  -0.003494  -0.028679   0.021751   0.005272  -0.007449
     28      -0.017680   0.005065   0.021492  -0.012159  -0.030063   0.036690
     29      -0.023862   0.008653   0.028844  -0.018824  -0.001496   0.001415
     30      -0.220152   0.055108   0.328813  -0.261727  -0.074494   0.083935
     31      -0.023364   0.011312   0.041405  -0.039447   0.488938  -0.611220
     32       0.318279  -0.097607  -0.424641   0.294421  -0.019550   0.030056
     33      -0.094279   0.022188   0.140094  -0.096883  -0.032844   0.031402
     34       0.291000  -0.077967  -0.404556   0.283131  -0.028818   0.038329
     35       0.060282  -0.018897  -0.076706   0.052736   0.046531  -0.053789
                 30         31         32         33         34         35    
      0       0.036692  -0.028972  -0.014293   0.006299   0.019518   0.014473
      1       0.007449  -0.005820   0.015084  -0.007673  -0.019834  -0.015205
      2      -0.001416   0.001135  -0.023759   0.011757   0.031393   0.023753
      3      -0.611244   0.490303   0.049655  -0.011052  -0.075874  -0.052017
      4      -0.083937   0.064761   0.015518  -0.006606  -0.022122  -0.016015
      5      -0.030056   0.027218  -0.011162   0.007328   0.012125   0.009110
      6       0.038323  -0.032795   0.176120  -0.088429  -0.231973  -0.175960
      7      -0.031403   0.025279  -0.256073   0.126436   0.337367   0.254893
      8       0.053785  -0.045239   0.388256  -0.192843  -0.511744  -0.386963
      9       0.004327   0.005820  -0.015150   0.019683  -0.007628  -0.015360
     10      -0.019200  -0.028977  -0.014358   0.019376  -0.006247  -0.014609
     11       0.001666   0.001135  -0.023864   0.031164  -0.011678  -0.023987
     12      -0.046974  -0.064777  -0.015551   0.021989  -0.006477  -0.016219
     13       0.324969   0.490374   0.049965  -0.075377   0.010817   0.052482
     14       0.015456   0.027223  -0.011183   0.012038  -0.007313  -0.009213
     15      -0.031159  -0.025274   0.257204  -0.334907   0.125598   0.257401
     16      -0.023101  -0.032793   0.176896  -0.230279   0.087836   0.177705
     17      -0.042066  -0.045231   0.389974  -0.508009   0.191561   0.390777
     18       0.036689   0.028979   0.014105   0.006103   0.019619  -0.014579
     19       0.007445   0.005818  -0.014898  -0.007471  -0.019951   0.015349
     20       0.001412   0.001132  -0.023459  -0.011443  -0.031573   0.023968
     21      -0.611167  -0.490378  -0.049015  -0.010330  -0.076202   0.052170
     22      -0.083935  -0.064779  -0.015265  -0.006366  -0.022168   0.016082
     23       0.030051   0.027222  -0.011027  -0.007221  -0.012206   0.009247
     24       0.038296   0.032777  -0.173878  -0.086089  -0.233275   0.177560
     25      -0.031362  -0.025245   0.252866   0.123075   0.339313  -0.257211
     26      -0.053722  -0.045190   0.383364   0.187725   0.514668  -0.390481
     27       0.004327  -0.005820   0.015069   0.020091  -0.007522   0.014956
     28      -0.019203   0.028973   0.014272   0.019764  -0.006153   0.014215
     29      -0.001667   0.001135  -0.023730  -0.031798   0.011525  -0.023354
     30      -0.046973   0.064761   0.015493   0.022391  -0.006443   0.015728
     31       0.325025  -0.490294  -0.049558  -0.076749   0.010530  -0.050941
     32      -0.015460   0.027219  -0.011152  -0.012294   0.007237  -0.008964
     33      -0.031159   0.025270  -0.255764  -0.341709   0.123931  -0.250576
     34      -0.023123   0.032794  -0.175929  -0.234983   0.086698  -0.173020
     35       0.042087  -0.045228   0.387804   0.518351  -0.189043   0.380449


-----------
IR SPECTRUM  
-----------

 Mode    freq (cm**-1)   T**2         TX         TY         TZ
-------------------------------------------------------------------
   6:        53.85    0.000286  (  0.011684  -0.012221   0.000265)
   7:        82.33    1.643722  ( -0.003218   0.001913  -1.282072)
   8:       201.19   62.434257  (  0.008183   0.039852   7.901430)
   9:       213.96    0.007390  ( -0.041901   0.048713   0.057110)
  10:       232.56   71.632878  ( -8.261035  -1.840649   0.013464)
  11:       232.96   70.559251  (  1.874835  -8.188004   0.028939)
  12:       259.11  177.323309  ( -6.908781 -11.383851  -0.000094)
  13:       259.29  176.376671  (-11.331490   6.926313  -0.013857)
  14:       264.81    0.685645  (  0.243314  -0.068236  -0.788535)
  15:       279.19    0.009884  ( -0.094701   0.023714  -0.018813)
  16:       408.37    0.000326  (  0.003948  -0.015310  -0.008708)
  17:       441.66   18.117666  ( -0.014375   0.015265  -4.256433)
  18:       452.15   42.304997  (  6.294894   1.636837  -0.008006)
  19:       452.37   42.239339  ( -1.629420   6.291601   0.008898)
  20:       750.86  176.797660  (  0.001002   0.005872  13.296527)
  21:       823.99  178.649101  ( 10.571025  -8.179395   0.004302)
  22:       824.04  178.553150  (  8.178003  10.567564  -0.003314)
  23:       992.11    0.000004  (  0.001643  -0.000666   0.000885)
  24:      1655.45   86.491809  (  0.008412  -0.000113   9.300093)
  25:      1669.74   54.916583  ( -2.659220  -6.917016   0.004558)
  26:      1669.84   54.923921  (  6.917136  -2.660271  -0.010694)
  27:      1698.51    0.000160  (  0.007464   0.004796   0.009010)
  28:      3407.29    0.000001  ( -0.000846  -0.000302   0.000141)
  29:      3503.73  1429.201281  (-17.328324 -33.599560  -0.000048)
  30:      3503.73  1429.234069  (-33.599975  17.328467   0.000151)
  31:      3544.51   26.485359  ( -0.002422   0.002398   5.146392)
  32:      3911.22  102.769793  (  0.052869   0.000064  10.137406)
  33:      3912.13  110.112694  ( -7.221160  -7.613566   0.034070)
  34:      3912.15  110.088597  ( -7.611552   7.221609   0.035147)
  35:      3912.93    0.012451  (  0.069042   0.077772  -0.040444)

The first frequency considered to be a vibration is 6
The total number of vibrations considered is 30


--------------------------
THERMOCHEMISTRY AT 298.15K
--------------------------

Temperature         ... 298.15 K
Pressure            ... 1.00 atm
Total Mass          ... 72.06 AMU

Throughout the following assumptions are being made:
  (1) The electronic state is orbitally nondegenerate
  (2) There are no thermally accessible electronically excited states
  (3) Hindered rotations indicated by low frequency modes are not
      treated as such but are treated as vibrations and this may
      cause some error
  (4) All equations used are the standard statistical mechanics
      equations for an ideal gas
  (5) All vibrations are strictly harmonic

freq.      53.85  E(vib)   ...       0.52 
freq.      82.33  E(vib)   ...       0.48 
freq.     201.19  E(vib)   ...       0.35 
freq.     213.96  E(vib)   ...       0.34 
freq.     232.56  E(vib)   ...       0.32 
freq.     232.96  E(vib)   ...       0.32 
freq.     259.11  E(vib)   ...       0.30 
freq.     259.29  E(vib)   ...       0.30 
freq.     264.81  E(vib)   ...       0.29 
freq.     279.19  E(vib)   ...       0.28 
freq.     408.37  E(vib)   ...       0.19 
freq.     441.66  E(vib)   ...       0.17 
freq.     452.15  E(vib)   ...       0.16 
freq.     452.37  E(vib)   ...       0.16 
freq.     750.86  E(vib)   ...       0.06 
freq.     823.99  E(vib)   ...       0.05 
freq.     824.04  E(vib)   ...       0.05 
freq.     992.11  E(vib)   ...       0.02 
freq.    1655.45  E(vib)   ...       0.00 
freq.    1669.74  E(vib)   ...       0.00 
freq.    1669.84  E(vib)   ...       0.00 
freq.    1698.51  E(vib)   ...       0.00 
freq.    3407.29  E(vib)   ...       0.00 
freq.    3503.73  E(vib)   ...       0.00 
freq.    3503.73  E(vib)   ...       0.00 
freq.    3544.51  E(vib)   ...       0.00 
freq.    3911.22  E(vib)   ...       0.00 
freq.    3912.13  E(vib)   ...       0.00 
freq.    3912.15  E(vib)   ...       0.00 
freq.    3912.93  E(vib)   ...       0.00 

------------
INNER ENERGY
------------

The inner energy is: U= E(el) + E(ZPE) + E(vib) + E(rot) + E(trans)
    E(el)   - is the total energy from the electronic structure calculation
              = E(kin-el) + E(nuc-el) + E(el-el) + E(nuc-nuc)
    E(ZPE)  - the the zero temperature vibrational energy from the frequency calculation
    E(vib)  - the the finite temperature correction to E(ZPE) due to population
              of excited vibrational states
    E(rot)  - is the rotational thermal energy
    E(trans)- is the translational thermal energy

Summary of contributions to the inner energy U:
Electronic energy                ...   -305.60918170 Eh
Zero point energy                ...      0.09915963 Eh      62.22 kcal/mol
Thermal vibrational correction   ...      0.00695762 Eh       4.37 kcal/mol
Thermal rotational correction    ...      0.00141627 Eh       0.89 kcal/mol
Thermal translational correction ...      0.00141627 Eh       0.89 kcal/mol
-----------------------------------------------------------------------
Total thermal energy                   -305.50023191 Eh


Summary of corrections to the electronic energy:
(perhaps to be used in another calculation)
Total thermal correction                  0.00979017 Eh       6.14 kcal/mol
Non-thermal (ZPE) correction              0.09915963 Eh      62.22 kcal/mol
-----------------------------------------------------------------------
Total correction                          0.10894979 Eh      68.37 kcal/mol


--------
ENTHALPY
--------

The enthalpy is H = U + kB*T
                kB is Boltzmann's constant
Total free energy                 ...   -305.50023191 Eh 
Thermal Enthalpy correction       ...      0.00094421 Eh       0.59 kcal/mol
-----------------------------------------------------------------------
Total Enthalpy                    ...   -305.49928770 Eh


Note: Only C1 symmetry has been detected, increase convergence thresholds 
      if your molecule has a higher symmetry. Symmetry factor of 1.0 is   
      used for the rotational entropy correction. 
 

Note: Rotational entropy computed according to Herzberg 
Infrared and Raman Spectra, Chapter V,1, Van Nostrand Reinhold, 1945 
Point Group:  C1, Symmetry Number:   1  
Rotational constants in cm-1:     0.121354     0.121353     0.061752 

Vibrational entropy computed according to the QRRHO of S. Grimme
Chem.Eur.J. 2012 18 9955


-------
ENTROPY
-------

The entropy contributions are T*S = T*(S(el)+S(vib)+S(rot)+S(trans))
     S(el)   - electronic entropy
     S(vib)  - vibrational entropy
     S(rot)  - rotational entropy
     S(trans)- translational entropy
The entropies will be listed as mutliplied by the temperature to get
units of energy

Electronic entropy                ...      0.00000000 Eh      0.00 kcal/mol
Vibrational entropy               ...      0.01203619 Eh      7.55 kcal/mol
Rotational entropy                ...      0.01281673 Eh      8.04 kcal/mol
Translational entropy             ...      0.01840717 Eh     11.55 kcal/mol
-----------------------------------------------------------------------
Final entropy term                ...      0.04326009 Eh     27.15 kcal/mol

In case the symmetry of your molecule has not been determined correctly
or in case you have a reason to use a different symmetry number we print 
out the resulting rotational entropy values for sn=1,12 :
 --------------------------------------------------------
|  sn= 1 | S(rot)=       0.01281673 Eh      8.04 kcal/mol|
|  sn= 2 | S(rot)=       0.01216228 Eh      7.63 kcal/mol|
|  sn= 3 | S(rot)=       0.01177944 Eh      7.39 kcal/mol|
|  sn= 4 | S(rot)=       0.01150782 Eh      7.22 kcal/mol|
|  sn= 5 | S(rot)=       0.01129713 Eh      7.09 kcal/mol|
|  sn= 6 | S(rot)=       0.01112499 Eh      6.98 kcal/mol|
|  sn= 7 | S(rot)=       0.01097944 Eh      6.89 kcal/mol|
|  sn= 8 | S(rot)=       0.01085336 Eh      6.81 kcal/mol|
|  sn= 9 | S(rot)=       0.01074216 Eh      6.74 kcal/mol|
|  sn=10 | S(rot)=       0.01064268 Eh      6.68 kcal/mol|
|  sn=11 | S(rot)=       0.01055269 Eh      6.62 kcal/mol|
|  sn=12 | S(rot)=       0.01047053 Eh      6.57 kcal/mol|
 --------------------------------------------------------


-------------------
GIBBS FREE ENERGY
-------------------

The Gibbs free energy is G = H - T*S

Total enthalpy                    ...   -305.49928770 Eh 
Total entropy correction          ...     -0.04326009 Eh    -27.15 kcal/mol
-----------------------------------------------------------------------
Final Gibbs free energy         ...   -305.54254779 Eh

For completeness - the Gibbs free energy minus the electronic energy
G-E(el)                           ...      0.06663391 Eh     41.81 kcal/mol


Total Time for Numerical Frequencies  :      2269.009 sec

Timings for individual modules:

Sum of individual times         ...      192.563 sec (=   3.209 min)
GTO integral calculation        ...        3.822 sec (=   0.064 min)   2.0 %
SCF iterations                  ...       16.578 sec (=   0.276 min)   8.6 %
MP2 module                      ...      171.811 sec (=   2.864 min)  89.2 %
Geometry relaxation             ...        0.351 sec (=   0.006 min)   0.2 %
                             ****ORCA TERMINATED NORMALLY****
TOTAL RUN TIME: 0 days 0 hours 40 minutes 25 seconds 561 msec
