
                                 *****************
                                 * O   R   C   A *
                                 *****************

           --- An Ab Initio, DFT and Semiempirical electronic structure package ---

                  #######################################################
                  #                        -***-                        #
                  #          Department of theory and spectroscopy      #
                  #               Directorship: Frank Neese             #
                  #        Max Planck Institute fuer Kohlenforschung    #
                  #                Kaiser Wilhelm Platz 1               #
                  #                 D-45470 Muelheim/Ruhr               #
                  #                      Germany                        #
                  #                                                     #
                  #                  All rights reserved                #
                  #                        -***-                        #
                  #######################################################


                         Program Version 4.2.0 -  RELEASE  -


 With contributions from (in alphabetic order):
   Daniel Aravena         : Magnetic Suceptibility
   Michael Atanasov       : Ab Initio Ligand Field Theory (pilot matlab implementation)
   Alexander A. Auer      : GIAO ZORA, VPT2
   Ute Becker             : Parallelization
   Giovanni Bistoni       : ED, misc. LED, open-shell LED, HFLED
   Martin Brehm           : Molecular dynamics
   Dmytro Bykov           : SCF Hessian
   Vijay G. Chilkuri      : MRCI spin determinant printing, contributions to CSF-ICE
   Dipayan Datta          : RHF DLPNO-CCSD density
   Achintya Kumar Dutta   : EOM-CC, STEOM-CC
   Dmitry Ganyushin       : Spin-Orbit,Spin-Spin,Magnetic field MRCI
   Miquel Garcia          : C-PCM Hessian, Gaussian charge scheme
   Yang Guo               : DLPNO-NEVPT2, CIM, IAO-localization
   Andreas Hansen         : Spin unrestricted coupled pair/coupled cluster methods
   Benjamin Helmich-Paris : CASSCF linear response (MC-RPA)
   Lee Huntington         : MR-EOM, pCC
   Robert Izsak           : Overlap fitted RIJCOSX, COSX-SCS-MP3, EOM
   Christian Kollmar      : KDIIS, OOCD, Brueckner-CCSD(T), CCSD density
   Simone Kossmann        : Meta GGA functionals, TD-DFT gradient, OOMP2, MP2 Hessian
   Martin Krupicka        : AUTO-CI
   Lucas Lang             : DCDCAS
   Dagmar Lenk            : GEPOL surface, SMD
   Dimitrios Liakos       : Extrapolation schemes; Compound Job, initial MDCI parallelization
   Dimitrios Manganas     : Further ROCIS development; embedding schemes
   Dimitrios Pantazis     : SARC Basis sets
   Taras Petrenko         : DFT Hessian,TD-DFT gradient, ASA, ECA, R-Raman, ABS, FL, XAS/XES, NRVS
   Peter Pinski           : DLPNO-MP2, DLPNO-MP2 Gradient
   Christoph Reimann      : Effective Core Potentials
   Marius Retegan         : Local ZFS, SOC
   Christoph Riplinger    : Optimizer, TS searches, QM/MM, DLPNO-CCSD(T), (RO)-DLPNO pert. Triples
   Tobias Risthaus        : Range-separated hybrids, TD-DFT gradient, RPA, STAB
   Michael Roemelt        : Original ROCIS implementation
   Masaaki Saitow         : Open-shell DLPNO-CCSD energy and density
   Barbara Sandhoefer     : DKH picture change effects
   Avijit Sen             : IP-ROCIS
   Kantharuban Sivalingam : CASSCF convergence, NEVPT2, FIC-MRCI
   Bernardo de Souza      : ESD, SOC TD-DFT
   Georgi Stoychev        : AutoAux, RI-MP2 NMR
   Willem Van den Heuvel  : Paramagnetic NMR
   Boris Wezisla          : Elementary symmetry handling
   Frank Wennmohs         : Technical directorship


 We gratefully acknowledge several colleagues who have allowed us to
 interface, adapt or use parts of their codes:
   Stefan Grimme, W. Hujo, H. Kruse,             : VdW corrections, initial TS optimization,
                  C. Bannwarth                     DFT functionals, gCP, sTDA/sTD-DF
   Ed Valeev, F. Pavosevic, A. Kumar             : LibInt (2-el integral package), F12 methods
   Garnet Chan, S. Sharma, J. Yang, R. Olivares  : DMRG
   Ulf Ekstrom                                   : XCFun DFT Library
   Mihaly Kallay                                 : mrcc  (arbitrary order and MRCC methods)
   Andreas Klamt, Michael Diedenhofen            : otool_cosmo (COSMO solvation model)
   Jiri Pittner, Ondrej Demel                    : Mk-CCSD
   Frank Weinhold                                : gennbo (NPA and NBO analysis)
   Christopher J. Cramer and Donald G. Truhlar   : smd solvation model
   Lars Goerigk                                  : TD-DFT with DH, B97 family of functionals
   V. Asgeirsson, H. Jonsson                     : NEB implementation
   FAccTs GmbH                                   : IRC, NEB, NEB-TS, Multilevel, MM, QM/MM, CI optimization
   S Lehtola, MJT Oliveira, MAL Marques          : LibXC Library


 Your calculation uses the libint2 library for the computation of 2-el integrals
 For citations please refer to: http://libint.valeyev.net

 Your ORCA version has been built with support for libXC version: 4.2.3
 For citations please refer to: https://tddft.org/programs/libxc/

 This ORCA versions uses:
   CBLAS   interface :  Fast vector & matrix operations
   LAPACKE interface :  Fast linear algebra routines
   SCALAPACK package :  Parallel linear algebra routines


Your calculation utilizes the atom-pairwise dispersion correction
with the Becke-Johnson damping scheme (D3BJ)
Cite in your paper:
S.Grimme, S.Ehrlich, L.Goerigk, J Comput Chem, (2011), 32, 1456–1465 
S.Grimme, J.Antony, S.Ehrlich and H.Krieg, J.Chem.Phys., 132, (2010), 154104 
   

----- Orbital basis set information -----
Your calculation utilizes the basis: aug-cc-pV(T+d)Z 
             Al - Ar: T.H. Dunning, Jr., K. A. Peterson and A. K. Wilson, J. Chem. Phys.
                      114, 9244 (2001)

----- AuxC basis set information -----
Your calculation utilizes the auxiliary basis: def2-TZVP/C
  H-La, Hf-Rn : A. Hellweg, C. Hattig, S. Hofener and W. Klopper, Theor. Chem. Acc. 117, 587 (2007).
        Ce-Lu : J. Chmela and M. E. Harding, Mol. Phys. (2018).

----- AuxJK basis set information -----
Your calculation utilizes the auxiliary basis: def2/JK
   H-Ba, Hf-Rn: F. Weigend, J. Comput. Chem. 29, 167 (2008).

================================================================================
                                        WARNINGS
                       Please study these warnings very carefully!
================================================================================


WARNING: The frozen-core approximation for MP2-gradient calculations is turned on by default.

WARNING: Geometry Optimization
  ===> : Switching off AutoStart
         For restart on a previous wavefunction, please use MOREAD

WARNING: There are different parametrizations of Gershom Martin's DSD-DFs
         for use with and without D3(BJ)!
         You are using the D3(BJ) parametrized version,
         consistent with the 2013 article (S. Kozuch and J. M. L. Martin, JCC 2013, 34, 2327)

WARNING: The frozen-core approximation is turned on by default for 
         the MP2 part of double-hybrid DFT.

INFO   : the flag for use of LIBINT has been found!

================================================================================
                                       INPUT FILE
================================================================================
NAME = 05_H2O_5.in
|  1> #
|  2> # 05_H2O_5 dsd-blyp/aug-cc-pvt(+d)z
|  3> #
|  4> ! rijk ri-dsd-blyp/2013 d3bj aug-cc-pvt(+d)z def2/jk def2-tzvp/c grid4 nofinalgrid opt xyzfile numfreq
|  5> 
|  6> *xyz 0 1
|  7> O	2.312927	0.150318	0.177415
|  8> O	0.864769	-2.137443	-0.15942
|  9> O	-1.781315	-1.498466	0.059758
| 10> O	-1.961951	1.234812	-0.062774
| 11> O	0.577396	2.241432	-0.075822
| 12> H	1.836849	-0.694236	0.04925
| 13> H	-0.089971	-1.943593	-0.076678
| 14> H	-1.915322	-0.530797	0.048103
| 15> H	-1.066728	1.628166	-0.074484
| 16> H	1.229463	1.522335	0.042111
| 17> H	2.825562	0.034681	0.978576
| 18> H	0.953988	-2.623745	-0.980296
| 19> H	-2.260123	-1.814802	0.826889
| 20> H	-2.472247	1.784461	0.533098
| 21> H	0.863928	2.71231	-0.859811
| 22> *
| 23> 
| 24> %maxcore 5000
| 25> 
| 26> %pal
| 27> nprocs 24
| 28> end
| 29> 
| 30> 
| 31>                          ****END OF INPUT****
================================================================================

                       *****************************
                       * Geometry Optimization Run *
                       *****************************

Geometry optimization settings:
Update method            Update   .... BFGS
Choice of coordinates    CoordSys .... Z-matrix Internals
Initial Hessian          InHess   .... Almoef's Model

Convergence Tolerances:
Energy Change            TolE     ....  5.0000e-06 Eh
Max. Gradient            TolMAXG  ....  3.0000e-04 Eh/bohr
RMS Gradient             TolRMSG  ....  1.0000e-04 Eh/bohr
Max. Displacement        TolMAXD  ....  4.0000e-03 bohr
RMS Displacement         TolRMSD  ....  2.0000e-03 bohr
Strict Convergence                ....  False
------------------------------------------------------------------------------
                        ORCA OPTIMIZATION COORDINATE SETUP
------------------------------------------------------------------------------

The optimization will be done in new redundant internal coordinates
Making redundant internal coordinates   ...  (new redundants) done
Evaluating the initial hessian          ...  (Almloef) done
Evaluating the coordinates              ...  done
Calculating the B-matrix                .... done
Calculating the G-matrix                .... done
Diagonalizing the G-matrix              .... done
The first mode is                       ....   20
The number of degrees of freedom        ....   39

    -----------------------------------------------------------------
                    Redundant Internal Coordinates


    -----------------------------------------------------------------
         Definition                    Initial Value    Approx d2E/dq
    -----------------------------------------------------------------
      1. B(H   5,O   0)                  0.9779         0.486810   
      2. B(H   5,O   1)                  1.7525         0.028285   
      3. B(H   6,O   2)                  1.7543         0.028105   
      4. B(H   6,O   1)                  0.9777         0.487172   
      5. B(H   7,O   2)                  0.9770         0.488525   
      6. B(H   7,O   3)                  1.7697         0.026555   
      7. B(H   8,O   4)                  1.7548         0.028051   
      8. B(H   8,O   3)                  0.9779         0.486865   
      9. B(H   9,O   0)                  1.7535         0.028187   
     10. B(H   9,O   4)                  0.9779         0.486946   
     11. B(H  10,O   0)                  0.9581         0.523528   
     12. B(H  11,O   1)                  0.9583         0.523266   
     13. B(H  12,O   2)                  0.9580         0.523739   
     14. B(H  13,O   3)                  0.9579         0.523976   
     15. B(H  14,O   4)                  0.9584         0.523087   
     16. A(H   9,O   0,H  10)          119.3112         0.209557   
     17. A(H   5,O   0,H   9)          111.3968         0.207590   
     18. A(H   5,O   0,H  10)          105.4158         0.318744   
     19. A(H   5,O   1,H   6)          111.6099         0.207702   
     20. A(H   5,O   1,H  11)          117.9216         0.209638   
     21. A(H   6,O   1,H  11)          105.3089         0.318757   
     22. A(H   7,O   2,H  12)          105.5483         0.318948   
     23. A(H   6,O   2,H  12)          117.4101         0.209489   
     24. A(H   6,O   2,H   7)          112.4976         0.207606   
     25. A(H   7,O   3,H  13)          123.1984         0.207964   
     26. A(H   8,O   3,H  13)          105.3267         0.318794   
     27. A(H   7,O   3,H   8)          112.2063         0.206002   
     28. A(H   9,O   4,H  14)          105.1062         0.318715   
     29. A(H   8,O   4,H  14)          116.9019         0.209403   
     30. A(H   8,O   4,H   9)          111.5732         0.207467   
     31. L(O   0,H   5,O   1,H   9, 2) 181.6716         0.207682   
     32. L(O   0,H   5,O   1,H   9, 1) 175.5995         0.207682   
     33. L(O   1,H   6,O   2,H   5, 2) 178.7819         0.207532   
     34. L(O   1,H   6,O   2,H   5, 1) 176.8415         0.207532   
     35. A(O   2,H   7,O   3)          173.0006         0.206092   
     36. L(O   3,H   8,O   4,H   7, 2) 180.5842         0.207463   
     37. L(O   3,H   8,O   4,H   7, 1) 176.7000         0.207463   
     38. L(O   0,H   9,O   4,H   8, 2) 183.5434         0.207597   
     39. L(O   0,H   9,O   4,H   8, 1) 176.1760         0.207597   
     40. D(H  11,O   1,O   0,H   9)    106.4348         0.001501   
     41. D(H   6,O   1,O   0,H   9)    -14.9279         0.001501   
     42. D(H   6,O   1,O   0,H  10)    114.8119         0.001501   
     43. D(H  11,O   1,O   0,H  10)   -123.8254         0.001501   
     44. D(H   7,O   2,O   1,H   5)     11.4802         0.001501   
     45. D(H  12,O   2,O   1,H  11)    120.8135         0.001501   
     46. D(H   7,O   2,O   1,H  11)   -116.8515         0.001501   
     47. D(H  12,O   2,O   1,H   5)   -110.8548         0.001501   
     48. D(H   9,O   4,O   3,H   7)     -3.7701         0.001501   
     49. D(H   9,O   4,O   3,H  13)    132.1214         0.001501   
     50. D(H   8,O   4,O   0,H  10)   -110.9981         0.001501   
     51. D(H   8,O   4,O   0,H   5)     11.9003         0.001501   
     52. D(H  14,O   4,O   0,H  10)    122.7980         0.001501   
     53. D(H  14,O   4,O   3,H  13)   -107.3675         0.001501   
     54. D(H  14,O   4,O   0,H   5)   -114.3036         0.001501   
     55. D(H  14,O   4,O   3,H   7)    116.7411         0.001501   
     56. D(O   2,H   7,O   3,H  13)   -152.6002         0.001881   
     57. D(O   2,H   7,O   3,H   8)    -25.1333         0.001881   
     58. D(O   3,H   7,O   2,H   6)     19.5321         0.294450   
     59. D(O   3,H   7,O   2,H  12)    148.7623         0.294450   
    -----------------------------------------------------------------

Number of atoms                         .... 15
Number of degrees of freedom            .... 59

         *************************************************************
         *                GEOMETRY OPTIMIZATION CYCLE   1            *
         *************************************************************
---------------------------------
CARTESIAN COORDINATES (ANGSTROEM)
---------------------------------
  O      2.312927    0.150318    0.177415
  O      0.864769   -2.137443   -0.159420
  O     -1.781315   -1.498466    0.059758
  O     -1.961951    1.234812   -0.062774
  O      0.577396    2.241432   -0.075822
  H      1.836849   -0.694236    0.049250
  H     -0.089971   -1.943593   -0.076678
  H     -1.915322   -0.530797    0.048103
  H     -1.066728    1.628166   -0.074484
  H      1.229463    1.522335    0.042111
  H      2.825562    0.034681    0.978576
  H      0.953988   -2.623745   -0.980296
  H     -2.260123   -1.814802    0.826889
  H     -2.472247    1.784461    0.533098
  H      0.863928    2.712310   -0.859811

----------------------------
CARTESIAN COORDINATES (A.U.)
----------------------------
  NO LB      ZA    FRAG     MASS         X           Y           Z
   0 O     8.0000    0    15.999    4.370799    0.284060    0.335266
   1 O     8.0000    0    15.999    1.634177   -4.039182   -0.301260
   2 O     8.0000    0    15.999   -3.366198   -2.831690    0.112926
   3 O     8.0000    0    15.999   -3.707550    2.333457   -0.118626
   4 O     8.0000    0    15.999    1.091120    4.235693   -0.143283
   5 H     1.0000    0     1.008    3.471142   -1.311916    0.093069
   6 H     1.0000    0     1.008   -0.170021   -3.672858   -0.144900
   7 H     1.0000    0     1.008   -3.619434   -1.003061    0.090901
   8 H     1.0000    0     1.008   -2.015824    3.076788   -0.140754
   9 H     1.0000    0     1.008    2.323348    2.876796    0.079578
  10 H     1.0000    0     1.008    5.339538    0.065538    1.849241
  11 H     1.0000    0     1.008    1.802776   -4.958159   -1.852491
  12 H     1.0000    0     1.008   -4.271013   -3.429479    1.562594
  13 H     1.0000    0     1.008   -4.671870    3.372143    1.007409
  14 H     1.0000    0     1.008    1.632587    5.125523   -1.624807

--------------------------------
INTERNAL COORDINATES (ANGSTROEM)
--------------------------------
 O      0   0   0     0.000000000000     0.00000000     0.00000000
 O      1   0   0     2.728455571071     0.00000000     0.00000000
 O      2   1   0     2.730950592242   107.94925627     0.00000000
 O      3   2   1     2.741979591610   107.06628089    13.09730221
 O      1   2   3     2.729277301984   107.06549532   344.98490806
 H      1   2   3     0.977930461856     2.93309900   181.59899752
 H      2   1   3     0.977728248883   109.97391047   359.38512925
 H      3   2   1     0.976973391979   111.32718232    11.52866055
 H      4   3   2     0.977900154998   109.94962754   354.18953913
 H      5   1   2     0.977854825824     2.96622939   156.26657087
 H      1   2   3     0.958136476143   106.61897896   115.42672130
 H      2   1   3     0.958272963482   118.80609298   120.74784289
 H      3   2   1     0.958026897807   118.11621857   249.19366164
 H      4   3   2     0.957903685764   125.39988308   227.11000997
 H      5   1   2     0.958366020907   105.20261475   244.80497783

---------------------------
INTERNAL COORDINATES (A.U.)
---------------------------
 O      0   0   0     0.000000000000     0.00000000     0.00000000
 O      1   0   0     5.156033797896     0.00000000     0.00000000
 O      2   1   0     5.160748704608   107.94925627     0.00000000
 O      3   2   1     5.181590492944   107.06628089    13.09730221
 O      1   2   3     5.157586644278   107.06549532   344.98490806
 H      1   2   3     1.848020750926     2.93309900   181.59899752
 H      2   1   3     1.847638623787   109.97391047   359.38512925
 H      3   2   1     1.846212150968   111.32718232    11.52866055
 H      4   3   2     1.847963479265   109.94962754   354.18953913
 H      5   1   2     1.847877819540     2.96622939   156.26657087
 H      1   2   3     1.810615538830   106.61897896   115.42672130
 H      2   1   3     1.810873462523   118.80609298   120.74784289
 H      3   2   1     1.810408465785   118.11621857   249.19366164
 H      4   3   2     1.810175628768   125.39988308   227.11000997
 H      5   1   2     1.811049315570   105.20261475   244.80497783

---------------------
BASIS SET INFORMATION
---------------------
There are 2 groups of distinct atoms

 Group   1 Type O   : 19s6p3d2f contracted to 5s4p3d2f pattern {88111/3111/111/11}
 Group   2 Type H   : 6s3p2d contracted to 4s3p2d pattern {3111/111/11}

Atom   0O    basis set group =>   1
Atom   1O    basis set group =>   1
Atom   2O    basis set group =>   1
Atom   3O    basis set group =>   1
Atom   4O    basis set group =>   1
Atom   5H    basis set group =>   2
Atom   6H    basis set group =>   2
Atom   7H    basis set group =>   2
Atom   8H    basis set group =>   2
Atom   9H    basis set group =>   2
Atom  10H    basis set group =>   2
Atom  11H    basis set group =>   2
Atom  12H    basis set group =>   2
Atom  13H    basis set group =>   2
Atom  14H    basis set group =>   2
---------------------------------
AUXILIARY/C BASIS SET INFORMATION
---------------------------------
There are 2 groups of distinct atoms

 Group   1 Type O   : 8s6p5d3f1g contracted to 8s6p4d3f1g pattern {11111111/111111/2111/111/1}
 Group   2 Type H   : 4s3p2d contracted to 4s2p1d pattern {1111/21/2}

Atom   0O    basis set group =>   1
Atom   1O    basis set group =>   1
Atom   2O    basis set group =>   1
Atom   3O    basis set group =>   1
Atom   4O    basis set group =>   1
Atom   5H    basis set group =>   2
Atom   6H    basis set group =>   2
Atom   7H    basis set group =>   2
Atom   8H    basis set group =>   2
Atom   9H    basis set group =>   2
Atom  10H    basis set group =>   2
Atom  11H    basis set group =>   2
Atom  12H    basis set group =>   2
Atom  13H    basis set group =>   2
Atom  14H    basis set group =>   2
----------------------------------
AUXILIARY/JK BASIS SET INFORMATION
----------------------------------
There are 2 groups of distinct atoms

 Group   1 Type O   : 14s10p6d2f1g contracted to 10s8p4d2f1g pattern {5111111111/31111111/3111/11/1}
 Group   2 Type H   : 4s2p2d contracted to 2s2p2d pattern {31/11/11}

Atom   0O    basis set group =>   1
Atom   1O    basis set group =>   1
Atom   2O    basis set group =>   1
Atom   3O    basis set group =>   1
Atom   4O    basis set group =>   1
Atom   5H    basis set group =>   2
Atom   6H    basis set group =>   2
Atom   7H    basis set group =>   2
Atom   8H    basis set group =>   2
Atom   9H    basis set group =>   2
Atom  10H    basis set group =>   2
Atom  11H    basis set group =>   2
Atom  12H    basis set group =>   2
Atom  13H    basis set group =>   2
Atom  14H    basis set group =>   2


           ************************************************************
           *        Program running with 24 parallel MPI-processes    *
           *              working on a common directory               *
           ************************************************************
------------------------------------------------------------------------------
                           ORCA GTO INTEGRAL CALCULATION
                           -- RI-GTO INTEGRALS CHOSEN --
------------------------------------------------------------------------------

                         BASIS SET STATISTICS AND STARTUP INFO

Gaussian basis set:
 # of primitive gaussian shells          ...  260
 # of primitive gaussian functions       ...  580
 # of contracted shells                  ...  160
 # of contracted basis functions         ...  460
 Highest angular momentum                ...    3
 Maximum contraction depth               ...    8
Auxiliary gaussian basis set:
 # of primitive gaussian shells          ...  245
 # of primitive gaussian functions       ...  685
 # of contracted shells                  ...  185
 # of contracted aux-basis functions     ...  565
 Highest angular momentum                ...    4
 Maximum contraction depth               ...    5
Ratio of auxiliary to basis functions    ...  1.23
Integral package used                  ... LIBINT
 One Electron integrals                  ... done
 Ordering auxiliary basis shells         ... done
 Integral threshhold             Thresh  ...  2.500e-11
 Primitive cut-off               TCut    ...  2.500e-12
 Pre-screening matrix                    ... done
 Shell pair data                         ... 
 Ordering of the shell pairs             ... done (   0.002 sec) 12013 of 12880 pairs
 Determination of significant pairs      ... done (   0.000 sec)
 Creation of shell pair data             ... done (   0.001 sec)
 Storage of shell pair data              ... done (   0.001 sec)
 Shell pair data done in (   0.005 sec)
 Computing two index integrals           ... done
 Cholesky decomposition of the V-matrix  ... done


Timings:
 Total evaluation time                   ...   0.403 sec (  0.007 min)
 One electron matrix time                ...   0.091 sec (  0.002 min) = 22.7%
 Schwartz matrix evaluation time         ...   0.210 sec (  0.004 min) = 52.2%
 Two index repulsion integral time       ...   0.006 sec (  0.000 min) =  1.4%
 Cholesky decomposition of V             ...   0.072 sec (  0.001 min) = 17.9%
 Three index repulsion integral time     ...   0.000 sec (  0.000 min) =  0.0%



           ************************************************************
           *        Program running with 24 parallel MPI-processes    *
           *              working on a common directory               *
           ************************************************************
-------------------------------------------------------------------------------
                                 ORCA SCF
-------------------------------------------------------------------------------

------------
SCF SETTINGS
------------
Hamiltonian:
 Density Functional     Method          .... DFT(GTOs)
 Exchange Functional    Exchange        .... B88
   X-Alpha parameter    XAlpha          ....  0.666667
   Becke's b parameter  XBeta           ....  0.004200
 Correlation Functional Correlation     .... LYP
 LDA part of GGA corr.  LDAOpt          .... VWN-5
 Gradients option       PostSCFGGA      .... off
 Hybrid DFT is turned on
   Fraction HF Exchange ScalHFX         ....  0.710000
   Scaling of DF-GGA-X  ScalDFX         ....  0.290000
   Scaling of DF-GGA-C  ScalDFC         ....  0.540000
   Scaling of DF-LDA-C  ScalLDAC        ....  0.540000
   Perturbative correction              ....  1.000000
   Density functional embedding theory  .... OFF
 RI-approximation to the Coulomb term is turned on
   Number of auxiliary basis functions  .... 565
   RI-JK (J+K treated both via RI)      .... on


General Settings:
 Integral files         IntName         .... 05_H2O_5
 Hartree-Fock type      HFTyp           .... RHF
 Total Charge           Charge          ....    0
 Multiplicity           Mult            ....    1
 Number of Electrons    NEL             ....   50
 Basis Dimension        Dim             ....  460
 Nuclear Repulsion      ENuc            ....    202.7548338254 Eh

Convergence Acceleration:
 DIIS                   CNVDIIS         .... on
   Start iteration      DIISMaxIt       ....    12
   Startup error        DIISStart       ....  0.200000
   # of expansion vecs  DIISMaxEq       ....     5
   Bias factor          DIISBfac        ....   1.050
   Max. coefficient     DIISMaxC        ....  10.000
 Newton-Raphson         CNVNR           .... off
 SOSCF                  CNVSOSCF        .... on
   Start iteration      SOSCFMaxIt      ....   150
   Startup grad/error   SOSCFStart      ....  0.003300
 Level Shifting         CNVShift        .... on
   Level shift para.    LevelShift      ....    0.2500
   Turn off err/grad.   ShiftErr        ....    0.0010
 Zerner damping         CNVZerner       .... off
 Static damping         CNVDamp         .... on
   Fraction old density DampFac         ....    0.7000
   Max. Damping (<1)    DampMax         ....    0.9800
   Min. Damping (>=0)   DampMin         ....    0.0000
   Turn off err/grad.   DampErr         ....    0.1000
 Fernandez-Rico         CNVRico         .... off

SCF Procedure:
 Maximum # iterations   MaxIter         ....   125
 SCF integral mode      SCFMode         .... Direct
   Integral package                     .... LIBINT
 Reset frequency        DirectResetFreq ....    20
 Integral Threshold     Thresh          ....  2.500e-11 Eh
 Primitive CutOff       TCut            ....  2.500e-12 Eh

Convergence Tolerance:
 Convergence Check Mode ConvCheckMode   .... Total+1el-Energy
 Convergence forced     ConvForced      .... 0
 Energy Change          TolE            ....  1.000e-08 Eh
 1-El. energy change                    ....  1.000e-05 Eh
 Orbital Gradient       TolG            ....  1.000e-05
 Orbital Rotation angle TolX            ....  1.000e-05
 DIIS Error             TolErr          ....  5.000e-07


Diagonalization of the overlap matrix:
Smallest eigenvalue                        ... 1.108e-04
Time for diagonalization                   ...    0.027 sec
Threshold for overlap eigenvalues          ... 1.000e-08
Number of eigenvalues below threshold      ... 0
Time for construction of square roots      ...    0.026 sec
Total time needed                          ...    0.054 sec

-------------------
DFT GRID GENERATION
-------------------

General Integration Accuracy     IntAcc      ...  4.670
Radial Grid Type                 RadialGrid  ... Gauss-Chebyshev
Angular Grid (max. acc.)         AngularGrid ... Lebedev-302
Angular grid pruning method      GridPruning ... 3 (G Style)
Weight generation scheme         WeightScheme... Becke
Basis function cutoff            BFCut       ...    1.0000e-11
Integration weight cutoff        WCut        ...    1.0000e-14
Grids for H and He will be reduced by one unit

# of grid points (after initial pruning)     ...  65000 (   0.0 sec)
# of grid points (after weights+screening)   ...  61006 (   0.0 sec)
nearest neighbour list constructed           ...    0.0 sec
Grid point re-assignment to atoms done       ...    0.0 sec
Grid point division into batches done        ...    0.2 sec
Reduced shell lists constructed in    0.2 sec

Total number of grid points                  ...    61006
Total number of batches                      ...      960
Average number of points per batch           ...       63
Average number of grid points per atom       ...     4067
Average number of shells per batch           ...   106.54 (66.59%)
Average number of basis functions per batch  ...   293.37 (63.78%)
Average number of large shells per batch     ...    85.71 (80.45%)
Average number of large basis fcns per batch ...   229.17 (78.12%)
Average number of aux-shells per batch       ...   106.54 (57.59%)
Average number of aux functions per batch    ...   293.37 (51.92%)
Maximum spatial batch extension              ...  11.76, 10.65,  8.33 au
Average spatial batch extension              ...   0.09,  0.09,  0.08 au

Time for grid setup =    0.312 sec

------------------------------
INITIAL GUESS: MODEL POTENTIAL
------------------------------
Loading Hartree-Fock densities                     ... done
Calculating cut-offs                               ... done
Setting up the integral package                    ... done
Initializing the effective Hamiltonian             ... done
Starting the Coulomb interaction                   ... done (   0.0 sec)
Reading the grid                                   ... done
Mapping shells                                     ... done
Starting the XC term evaluation                    ... done (   0.1 sec)
  promolecular density results
     # of electrons  =     49.994577283
     EX              =    -43.957982661
     EC              =     -0.202827391
     EX+EC           =    -44.160810051
Transforming the Hamiltonian                       ... done (   0.0 sec)
Diagonalizing the Hamiltonian                      ... done (   0.0 sec)
Back transforming the eigenvectors                 ... done (   0.0 sec)
Now organizing SCF variables                       ... done
                      ------------------
                      INITIAL GUESS DONE (   0.5 sec)
                      ------------------
--------------
SCF ITERATIONS
--------------
ITER       Energy         Delta-E        Max-DP      RMS-DP      [F,P]     Damp
  0   -380.9355507055   0.000000000000 0.03512703  0.00054758  0.3452003 0.7000
  1   -380.5575951686   0.377955536956 0.03261517  0.00057115  0.2826290 0.7000
                               ***Turning on DIIS***
  2   -380.6614427976  -0.103847629066 0.01428706  0.00029873  0.1326736 0.7000
  3   -380.9504714694  -0.289028671721 0.02335854  0.00025510  0.0413214 0.0000
  4   -381.3063279385  -0.355856469156 0.00824769  0.00017630  0.0687288 0.0000
  5   -381.3210816551  -0.014753716624 0.00655264  0.00011664  0.0364941 0.0000
  6   -381.3256316885  -0.004550033368 0.00374542  0.00006609  0.0161350 0.0000
  7   -381.3266722702  -0.001040581699 0.00123474  0.00002331  0.0049233 0.0000
                      *** Initiating the SOSCF procedure ***
                           *** Shutting down DIIS ***
                      *** Re-Reading the Fockian *** 
                      *** Removing any level shift *** 
ITER      Energy       Delta-E        Grad      Rot      Max-DP    RMS-DP
  8   -381.32678112  -0.0001088453  0.000161  0.000161  0.000349  0.000007
  9   -381.32678651  -0.0000053954  0.000024  0.000043  0.000079  0.000002
 10   -381.32678662  -0.0000001091  0.000010  0.000024  0.000044  0.000001
 11   -381.32678664  -0.0000000162  0.000005  0.000007  0.000017  0.000000
                  ***Gradient check signals convergence***
              ***Rediagonalizing the Fockian in SOSCF/NRSCF***

               *****************************************************
               *                     SUCCESS                       *
               *           SCF CONVERGED AFTER  12 CYCLES          *
               *****************************************************


----------------
TOTAL SCF ENERGY
----------------

Total Energy       :         -381.32678664 Eh          -10376.42939 eV

Components:
Nuclear Repulsion  :          202.75483383 Eh            5517.23952 eV
Electronic Energy  :         -584.08162047 Eh          -15893.66891 eV
One Electron Energy:         -929.23982257 Eh          -25285.90108 eV
Two Electron Energy:          345.15820210 Eh            9392.23217 eV

Virial components:
Potential Energy   :         -761.42002682 Eh          -20719.29228 eV
Kinetic Energy     :          380.09324018 Eh           10342.86289 eV
Virial Ratio       :            2.00324538


DFT components:
N(Alpha)           :       24.999883963181 electrons
N(Beta)            :       24.999883963181 electrons
N(Total)           :       49.999767926361 electrons
E(X)               :      -13.031261543916 Eh       
E(C)               :       -0.934428355279 Eh       
E(XC)              :      -13.965689899194 Eh       
DFET-embed. en.    :        0.000000000000 Eh       

---------------
SCF CONVERGENCE
---------------

  Last Energy change         ...   -3.5911e-09  Tolerance :   1.0000e-08
  Last MAX-Density change    ...    7.8657e-06  Tolerance :   1.0000e-07
  Last RMS-Density change    ...    8.5658e-08  Tolerance :   5.0000e-09
  Last Orbital Gradient      ...    5.4967e-07  Tolerance :   1.0000e-05
  Last Orbital Rotation      ...    7.3491e-07  Tolerance :   1.0000e-05

             **** THE GBW FILE WAS UPDATED (05_H2O_5.gbw) ****
             **** DENSITY FILE WAS UPDATED (05_H2O_5.scfp) ****
             **** ENERGY FILE WAS UPDATED (05_H2O_5.en.tmp) ****
             **** THE GBW FILE WAS UPDATED (05_H2O_5.gbw) ****
             **** DENSITY FILE WAS UPDATED (05_H2O_5.scfp) ****
----------------
ORBITAL ENERGIES
----------------

  NO   OCC          E(Eh)            E(eV) 
   0   2.0000     -20.046941      -545.5050 
   1   2.0000     -20.045623      -545.4691 
   2   2.0000     -20.045517      -545.4663 
   3   2.0000     -20.045227      -545.4584 
   4   2.0000     -20.045008      -545.4524 
   5   2.0000      -1.241954       -33.7953 
   6   2.0000      -1.232421       -33.5359 
   7   2.0000      -1.231735       -33.5172 
   8   2.0000      -1.215974       -33.0883 
   9   2.0000      -1.215119       -33.0651 
  10   2.0000      -0.660466       -17.9722 
  11   2.0000      -0.656312       -17.8592 
  12   2.0000      -0.654285       -17.8040 
  13   2.0000      -0.652443       -17.7539 
  14   2.0000      -0.651036       -17.7156 
  15   2.0000      -0.553847       -15.0709 
  16   2.0000      -0.550496       -14.9798 
  17   2.0000      -0.509516       -13.8646 
  18   2.0000      -0.507066       -13.7980 
  19   2.0000      -0.481108       -13.0916 
  20   2.0000      -0.444451       -12.0941 
  21   2.0000      -0.440125       -11.9764 
  22   2.0000      -0.439733       -11.9657 
  23   2.0000      -0.438899       -11.9430 
  24   2.0000      -0.435328       -11.8459 
  25   0.0000       0.011176         0.3041 
  26   0.0000       0.025630         0.6974 
  27   0.0000       0.027952         0.7606 
  28   0.0000       0.036266         0.9869 
  29   0.0000       0.044347         1.2067 
  30   0.0000       0.060590         1.6487 
  31   0.0000       0.064754         1.7620 
  32   0.0000       0.068700         1.8694 
  33   0.0000       0.074462         2.0262 
  34   0.0000       0.085257         2.3200 
  35   0.0000       0.118709         3.2302 
  36   0.0000       0.126702         3.4477 
  37   0.0000       0.132002         3.5920 
  38   0.0000       0.132640         3.6093 
  39   0.0000       0.141344         3.8462 
  40   0.0000       0.146237         3.9793 
  41   0.0000       0.148490         4.0406 
  42   0.0000       0.151429         4.1206 
  43   0.0000       0.166855         4.5404 
  44   0.0000       0.170051         4.6273 
  45   0.0000       0.183648         4.9973 
  46   0.0000       0.191022         5.1980 
  47   0.0000       0.194824         5.3014 
  48   0.0000       0.198118         5.3911 
  49   0.0000       0.202130         5.5002 
  50   0.0000       0.210024         5.7150 
  51   0.0000       0.221121         6.0170 
  52   0.0000       0.225492         6.1359 
  53   0.0000       0.238222         6.4823 
  54   0.0000       0.239792         6.5251 
  55   0.0000       0.251252         6.8369 
  56   0.0000       0.253420         6.8959 
  57   0.0000       0.259709         7.0671 
  58   0.0000       0.265123         7.2144 
  59   0.0000       0.270418         7.3585 
  60   0.0000       0.277430         7.5492 
  61   0.0000       0.303406         8.2561 
  62   0.0000       0.330123         8.9831 
  63   0.0000       0.336060         9.1446 
  64   0.0000       0.345842         9.4109 
  65   0.0000       0.355288         9.6679 
  66   0.0000       0.356132         9.6908 
  67   0.0000       0.359355         9.7785 
  68   0.0000       0.364086         9.9073 
  69   0.0000       0.371485        10.1086 
  70   0.0000       0.381469        10.3803 
  71   0.0000       0.385234        10.4827 
  72   0.0000       0.389264        10.5924 
  73   0.0000       0.393004        10.6942 
  74   0.0000       0.396939        10.8013 
  75   0.0000       0.397134        10.8066 
  76   0.0000       0.400134        10.8882 
  77   0.0000       0.408337        11.1114 
  78   0.0000       0.409741        11.1496 
  79   0.0000       0.420306        11.4371 
  80   0.0000       0.430594        11.7171 
  81   0.0000       0.432396        11.7661 
  82   0.0000       0.438320        11.9273 
  83   0.0000       0.440950        11.9989 
  84   0.0000       0.454444        12.3661 
  85   0.0000       0.459965        12.5163 
  86   0.0000       0.462706        12.5909 
  87   0.0000       0.466500        12.6941 
  88   0.0000       0.469363        12.7720 
  89   0.0000       0.472167        12.8483 
  90   0.0000       0.524089        14.2612 
  91   0.0000       0.534147        14.5349 
  92   0.0000       0.545457        14.8426 
  93   0.0000       0.551205        14.9991 
  94   0.0000       0.555020        15.1029 
  95   0.0000       0.559514        15.2252 
  96   0.0000       0.604302        16.4439 
  97   0.0000       0.620198        16.8765 
  98   0.0000       0.626432        17.0461 
  99   0.0000       0.649039        17.6612 
 100   0.0000       0.659057        17.9339 
 101   0.0000       0.670871        18.2553 
 102   0.0000       0.677178        18.4269 
 103   0.0000       0.680729        18.5236 
 104   0.0000       0.710680        19.3386 
 105   0.0000       0.715745        19.4764 
 106   0.0000       0.727237        19.7891 
 107   0.0000       0.742633        20.2081 
 108   0.0000       0.745591        20.2886 
 109   0.0000       0.753850        20.5133 
 110   0.0000       0.762577        20.7508 
 111   0.0000       0.770041        20.9539 
 112   0.0000       0.784507        21.3475 
 113   0.0000       0.789384        21.4802 
 114   0.0000       0.800019        21.7696 
 115   0.0000       0.813861        22.1463 
 116   0.0000       0.815398        22.1881 
 117   0.0000       0.823955        22.4209 
 118   0.0000       0.835319        22.7302 
 119   0.0000       0.842962        22.9382 
 120   0.0000       0.853520        23.2255 
 121   0.0000       0.869806        23.6686 
 122   0.0000       0.872876        23.7522 
 123   0.0000       0.875079        23.8121 
 124   0.0000       0.877328        23.8733 
 125   0.0000       0.885447        24.0943 
 126   0.0000       0.896377        24.3917 
 127   0.0000       0.910848        24.7854 
 128   0.0000       0.915247        24.9051 
 129   0.0000       0.926177        25.2025 
 130   0.0000       0.927686        25.2436 
 131   0.0000       0.935958        25.4687 
 132   0.0000       0.938210        25.5300 
 133   0.0000       0.944549        25.7025 
 134   0.0000       0.948538        25.8110 
 135   0.0000       0.958531        26.0830 
 136   0.0000       0.961472        26.1630 
 137   0.0000       0.965575        26.2746 
 138   0.0000       0.972536        26.4641 
 139   0.0000       0.989108        26.9150 
 140   0.0000       0.992629        27.0108 
 141   0.0000       0.993209        27.0266 
 142   0.0000       1.005258        27.3544 
 143   0.0000       1.012828        27.5604 
 144   0.0000       1.016158        27.6511 
 145   0.0000       1.037090        28.2206 
 146   0.0000       1.047897        28.5147 
 147   0.0000       1.062803        28.9203 
 148   0.0000       1.068329        29.0707 
 149   0.0000       1.070756        29.1367 
 150   0.0000       1.101249        29.9665 
 151   0.0000       1.108449        30.1624 
 152   0.0000       1.119395        30.4603 
 153   0.0000       1.129284        30.7294 
 154   0.0000       1.134833        30.8804 
 155   0.0000       1.146595        31.2004 
 156   0.0000       1.156382        31.4668 
 157   0.0000       1.159728        31.5578 
 158   0.0000       1.177087        32.0302 
 159   0.0000       1.184288        32.2261 
 160   0.0000       1.189784        32.3757 
 161   0.0000       1.193241        32.4697 
 162   0.0000       1.203385        32.7458 
 163   0.0000       1.218087        33.1458 
 164   0.0000       1.221322        33.2339 
 165   0.0000       1.234450        33.5911 
 166   0.0000       1.241506        33.7831 
 167   0.0000       1.249932        34.0124 
 168   0.0000       1.275701        34.7136 
 169   0.0000       1.283904        34.9368 
 170   0.0000       1.296892        35.2902 
 171   0.0000       1.317873        35.8612 
 172   0.0000       1.329343        36.1733 
 173   0.0000       1.336779        36.3756 
 174   0.0000       1.344702        36.5912 
 175   0.0000       1.349632        36.7253 
 176   0.0000       1.367426        37.2095 
 177   0.0000       1.372964        37.3602 
 178   0.0000       1.385322        37.6965 
 179   0.0000       1.393422        37.9169 
 180   0.0000       1.431665        38.9576 
 181   0.0000       1.440821        39.2067 
 182   0.0000       1.445996        39.3476 
 183   0.0000       1.447754        39.3954 
 184   0.0000       1.482029        40.3281 
 185   0.0000       1.485489        40.4222 
 186   0.0000       1.500665        40.8352 
 187   0.0000       1.510499        41.1028 
 188   0.0000       1.520193        41.3665 
 189   0.0000       1.531521        41.6748 
 190   0.0000       1.556055        42.3424 
 191   0.0000       1.562296        42.5122 
 192   0.0000       1.568130        42.6710 
 193   0.0000       1.608022        43.7565 
 194   0.0000       1.616818        43.9958 
 195   0.0000       1.641706        44.6731 
 196   0.0000       1.659159        45.1480 
 197   0.0000       1.667610        45.3780 
 198   0.0000       1.675628        45.5962 
 199   0.0000       1.694081        46.0983 
 200   0.0000       1.710115        46.5346 
 201   0.0000       1.724539        46.9271 
 202   0.0000       1.736290        47.2468 
 203   0.0000       1.739828        47.3431 
 204   0.0000       1.746719        47.5306 
 205   0.0000       1.756593        47.7993 
 206   0.0000       1.760492        47.9054 
 207   0.0000       1.786480        48.6126 
 208   0.0000       1.803409        49.0732 
 209   0.0000       1.828303        49.7507 
 210   0.0000       1.834185        49.9107 
 211   0.0000       1.854684        50.4685 
 212   0.0000       1.871138        50.9163 
 213   0.0000       1.913434        52.0672 
 214   0.0000       1.926924        52.4343 
 215   0.0000       1.943338        52.8809 
 216   0.0000       1.951380        53.0997 
 217   0.0000       1.961961        53.3877 
 218   0.0000       1.987880        54.0930 
 219   0.0000       1.997287        54.3489 
 220   0.0000       2.063589        56.1531 
 221   0.0000       2.066958        56.2448 
 222   0.0000       2.075734        56.4836 
 223   0.0000       2.132711        58.0340 
 224   0.0000       2.136493        58.1369 
 225   0.0000       2.202456        59.9319 
 226   0.0000       2.283310        62.1320 
 227   0.0000       2.287849        62.2555 
 228   0.0000       2.293337        62.4049 
 229   0.0000       2.302929        62.6659 
 230   0.0000       2.307218        62.7826 
 231   0.0000       2.328658        63.3660 
 232   0.0000       2.330837        63.4253 
 233   0.0000       2.365967        64.3812 
 234   0.0000       2.391312        65.0709 
 235   0.0000       2.403208        65.3946 
 236   0.0000       2.411708        65.6259 
 237   0.0000       2.417523        65.7841 
 238   0.0000       2.425668        66.0058 
 239   0.0000       2.438060        66.3430 
 240   0.0000       2.452695        66.7412 
 241   0.0000       2.458077        66.8877 
 242   0.0000       2.472357        67.2763 
 243   0.0000       2.485028        67.6211 
 244   0.0000       2.497604        67.9633 
 245   0.0000       2.506570        68.2072 
 246   0.0000       2.510481        68.3137 
 247   0.0000       2.521505        68.6136 
 248   0.0000       2.540676        69.1353 
 249   0.0000       2.556592        69.5684 
 250   0.0000       2.562650        69.7333 
 251   0.0000       2.581540        70.2473 
 252   0.0000       2.592121        70.5352 
 253   0.0000       2.602630        70.8212 
 254   0.0000       2.612068        71.0780 
 255   0.0000       2.645712        71.9935 
 256   0.0000       2.659197        72.3604 
 257   0.0000       2.664546        72.5060 
 258   0.0000       2.676064        72.8194 
 259   0.0000       2.685375        73.0728 
 260   0.0000       2.709163        73.7201 
 261   0.0000       2.729274        74.2673 
 262   0.0000       2.752085        74.8881 
 263   0.0000       2.763292        75.1930 
 264   0.0000       2.767861        75.3173 
 265   0.0000       2.781256        75.6818 
 266   0.0000       2.801118        76.2223 
 267   0.0000       2.811302        76.4994 
 268   0.0000       2.835816        77.1665 
 269   0.0000       2.841073        77.3095 
 270   0.0000       2.873199        78.1837 
 271   0.0000       2.877497        78.3007 
 272   0.0000       2.885839        78.5277 
 273   0.0000       2.896631        78.8213 
 274   0.0000       2.925371        79.6034 
 275   0.0000       2.942222        80.0619 
 276   0.0000       2.960789        80.5672 
 277   0.0000       2.964660        80.6725 
 278   0.0000       2.969942        80.8162 
 279   0.0000       2.997936        81.5780 
 280   0.0000       3.003474        81.7287 
 281   0.0000       3.026075        82.3437 
 282   0.0000       3.052739        83.0692 
 283   0.0000       3.091772        84.1314 
 284   0.0000       3.105723        84.5110 
 285   0.0000       3.134165        85.2850 
 286   0.0000       3.140237        85.4502 
 287   0.0000       3.159738        85.9808 
 288   0.0000       3.175347        86.4056 
 289   0.0000       3.236567        88.0715 
 290   0.0000       3.749620       102.0323 
 291   0.0000       3.764212       102.4294 
 292   0.0000       3.774556       102.7109 
 293   0.0000       3.781433       102.8980 
 294   0.0000       3.789204       103.1095 
 295   0.0000       4.000427       108.8571 
 296   0.0000       4.018335       109.3444 
 297   0.0000       4.024252       109.5055 
 298   0.0000       4.033457       109.7559 
 299   0.0000       4.035419       109.8093 
 300   0.0000       4.054819       110.3372 
 301   0.0000       4.060805       110.5001 
 302   0.0000       4.065116       110.6174 
 303   0.0000       4.081306       111.0580 
 304   0.0000       4.094754       111.4239 
 305   0.0000       4.143910       112.7615 
 306   0.0000       4.150433       112.9390 
 307   0.0000       4.160542       113.2141 
 308   0.0000       4.169201       113.4497 
 309   0.0000       4.180845       113.7666 
 310   0.0000       4.188611       113.9779 
 311   0.0000       4.196319       114.1876 
 312   0.0000       4.204219       114.4026 
 313   0.0000       4.212428       114.6260 
 314   0.0000       4.233040       115.1869 
 315   0.0000       4.250218       115.6543 
 316   0.0000       4.285402       116.6117 
 317   0.0000       4.308069       117.2285 
 318   0.0000       4.316377       117.4546 
 319   0.0000       4.323677       117.6532 
 320   0.0000       4.376768       119.0979 
 321   0.0000       4.393039       119.5407 
 322   0.0000       4.415076       120.1403 
 323   0.0000       4.421925       120.3267 
 324   0.0000       4.427267       120.4721 
 325   0.0000       4.449178       121.0683 
 326   0.0000       4.455177       121.2315 
 327   0.0000       4.473042       121.7177 
 328   0.0000       4.478986       121.8794 
 329   0.0000       4.499251       122.4308 
 330   0.0000       4.510080       122.7255 
 331   0.0000       4.523437       123.0890 
 332   0.0000       4.525505       123.1452 
 333   0.0000       4.537634       123.4753 
 334   0.0000       4.555197       123.9532 
 335   0.0000       4.563328       124.1745 
 336   0.0000       4.579668       124.6191 
 337   0.0000       4.584995       124.7641 
 338   0.0000       4.591802       124.9493 
 339   0.0000       4.610374       125.4547 
 340   0.0000       4.615847       125.6036 
 341   0.0000       4.627965       125.9333 
 342   0.0000       4.673942       127.1844 
 343   0.0000       4.676535       127.2550 
 344   0.0000       4.678124       127.2982 
 345   0.0000       4.767468       129.7294 
 346   0.0000       4.789432       130.3271 
 347   0.0000       4.804300       130.7316 
 348   0.0000       4.815952       131.0487 
 349   0.0000       4.832137       131.4891 
 350   0.0000       4.932231       134.2128 
 351   0.0000       4.963508       135.0639 
 352   0.0000       4.965575       135.1202 
 353   0.0000       4.987245       135.7098 
 354   0.0000       4.994344       135.9030 
 355   0.0000       5.047044       137.3371 
 356   0.0000       5.063283       137.7789 
 357   0.0000       5.082519       138.3024 
 358   0.0000       5.095666       138.6601 
 359   0.0000       5.138510       139.8260 
 360   0.0000       5.148010       140.0845 
 361   0.0000       5.160872       140.4345 
 362   0.0000       5.190353       141.2367 
 363   0.0000       5.236478       142.4918 
 364   0.0000       5.245459       142.7362 
 365   0.0000       5.257607       143.0668 
 366   0.0000       5.270867       143.4276 
 367   0.0000       5.276218       143.5732 
 368   0.0000       5.281535       143.7179 
 369   0.0000       5.306880       144.4076 
 370   0.0000       5.328323       144.9911 
 371   0.0000       5.366618       146.0331 
 372   0.0000       5.391931       146.7219 
 373   0.0000       5.421772       147.5339 
 374   0.0000       5.430992       147.7848 
 375   0.0000       5.495455       149.5389 
 376   0.0000       5.531557       150.5213 
 377   0.0000       5.567406       151.4968 
 378   0.0000       5.597396       152.3129 
 379   0.0000       5.624752       153.0573 
 380   0.0000       5.755893       156.6258 
 381   0.0000       5.767648       156.9457 
 382   0.0000       5.797594       157.7606 
 383   0.0000       5.807256       158.0235 
 384   0.0000       5.836607       158.8222 
 385   0.0000       6.251474       170.1113 
 386   0.0000       6.268353       170.5706 
 387   0.0000       6.287772       171.0990 
 388   0.0000       6.291584       171.2027 
 389   0.0000       6.303911       171.5381 
 390   0.0000       6.411640       174.4696 
 391   0.0000       6.422623       174.7684 
 392   0.0000       6.423826       174.8012 
 393   0.0000       6.429273       174.9494 
 394   0.0000       6.434004       175.0782 
 395   0.0000       6.733392       183.2249 
 396   0.0000       6.741428       183.4436 
 397   0.0000       6.775272       184.3645 
 398   0.0000       6.787417       184.6950 
 399   0.0000       6.804398       185.1571 
 400   0.0000       6.810467       185.3222 
 401   0.0000       6.832728       185.9280 
 402   0.0000       6.882747       187.2891 
 403   0.0000       6.894765       187.6161 
 404   0.0000       6.942026       188.9021 
 405   0.0000       7.037755       191.5071 
 406   0.0000       7.060910       192.1371 
 407   0.0000       7.076964       192.5740 
 408   0.0000       7.085702       192.8118 
 409   0.0000       7.094277       193.0451 
 410   0.0000       7.128006       193.9629 
 411   0.0000       7.176424       195.2804 
 412   0.0000       7.184668       195.5048 
 413   0.0000       7.187559       195.5834 
 414   0.0000       7.196011       195.8134 
 415   0.0000       7.226243       196.6361 
 416   0.0000       7.245059       197.1481 
 417   0.0000       7.245394       197.1572 
 418   0.0000       7.259218       197.5334 
 419   0.0000       7.277324       198.0260 
 420   0.0000       7.282905       198.1779 
 421   0.0000       7.288159       198.3209 
 422   0.0000       7.311354       198.9520 
 423   0.0000       7.325313       199.3319 
 424   0.0000       7.345483       199.8808 
 425   0.0000       7.349396       199.9872 
 426   0.0000       7.354495       200.1260 
 427   0.0000       7.360230       200.2820 
 428   0.0000       7.389677       201.0833 
 429   0.0000       7.402696       201.4376 
 430   0.0000       7.445742       202.6089 
 431   0.0000       7.463365       203.0885 
 432   0.0000       7.477853       203.4827 
 433   0.0000       7.528863       204.8708 
 434   0.0000       7.535201       205.0432 
 435   0.0000       7.672914       208.7906 
 436   0.0000       7.676230       208.8808 
 437   0.0000       7.691832       209.3054 
 438   0.0000       7.714648       209.9262 
 439   0.0000       7.722183       210.1313 
 440   0.0000       7.866902       214.0693 
 441   0.0000       7.870332       214.1626 
 442   0.0000       7.876414       214.3281 
 443   0.0000       7.881949       214.4787 
 444   0.0000       7.892772       214.7732 
 445   0.0000       7.898688       214.9342 
 446   0.0000       7.922867       215.5922 
 447   0.0000       8.000993       217.7181 
 448   0.0000       8.013585       218.0607 
 449   0.0000       8.099585       220.4009 
 450   0.0000       8.805352       239.6058 
 451   0.0000       8.822019       240.0593 
 452   0.0000       8.833917       240.3831 
 453   0.0000       8.848818       240.7886 
 454   0.0000       8.891651       241.9541 
 455   0.0000      15.976164       434.7335 
 456   0.0000      16.602412       451.7746 
 457   0.0000      16.666987       453.5318 
 458   0.0000      17.583715       478.4772 
 459   0.0000      17.609709       479.1846 

                    ********************************
                    * MULLIKEN POPULATION ANALYSIS *
                    ********************************

-----------------------
MULLIKEN ATOMIC CHARGES
-----------------------
   0 O :   -0.457476
   1 O :   -0.453402
   2 O :   -0.447816
   3 O :   -0.465315
   4 O :   -0.451180
   5 H :    0.293344
   6 H :    0.296224
   7 H :    0.283094
   8 H :    0.298621
   9 H :    0.294325
  10 H :    0.161171
  11 H :    0.161878
  12 H :    0.165482
  13 H :    0.160268
  14 H :    0.160781
Sum of atomic charges:   -0.0000000

--------------------------------
MULLIKEN REDUCED ORBITAL CHARGES
--------------------------------
  0 O s       :     3.881227  s :     3.881227
      pz      :     1.457859  p :     4.563299
      px      :     1.589262
      py      :     1.516178
      dz2     :     0.003328  d :     0.012709
      dxz     :     0.002003
      dyz     :     0.001665
      dx2y2   :     0.003102
      dxy     :     0.002611
      f0      :    -0.000022  f :     0.000241
      f+1     :     0.000189
      f-1     :     0.000056
      f+2     :     0.000021
      f-2     :     0.000119
      f+3     :    -0.000122
      f-3     :    -0.000001
  1 O s       :     3.878939  s :     3.878939
      pz      :     1.443668  p :     4.561199
      px      :     1.436039
      py      :     1.681492
      dz2     :     0.003906  d :     0.013028
      dxz     :     0.000906
      dyz     :     0.002689
      dx2y2   :     0.006298
      dxy     :    -0.000773
      f0      :    -0.000031  f :     0.000237
      f+1     :    -0.000043
      f-1     :     0.000280
      f+2     :     0.000077
      f-2     :     0.000040
      f+3     :    -0.000059
      f-3     :    -0.000028
  2 O s       :     3.884700  s :     3.884700
      pz      :     1.489419  p :     4.551048
      px      :     1.691506
      py      :     1.370123
      dz2     :     0.003245  d :     0.011856
      dxz     :     0.002889
      dyz     :     0.001277
      dx2y2   :     0.003458
      dxy     :     0.000987
      f0      :     0.000010  f :     0.000212
      f+1     :     0.000231
      f-1     :    -0.000056
      f+2     :     0.000088
      f-2     :     0.000076
      f+3     :    -0.000029
      f-3     :    -0.000108
  3 O s       :     3.884604  s :     3.884604
      pz      :     1.635082  p :     4.567186
      px      :     1.344572
      py      :     1.587532
      dz2     :     0.003011  d :     0.013206
      dxz     :     0.001101
      dyz     :     0.001889
      dx2y2   :     0.000479
      dxy     :     0.006726
      f0      :     0.000190  f :     0.000320
      f+1     :     0.000113
      f-1     :     0.000041
      f+2     :     0.000062
      f-2     :     0.000181
      f+3     :    -0.000023
      f-3     :    -0.000245
  4 O s       :     3.879003  s :     3.879003
      pz      :     1.475078  p :     4.559206
      px      :     1.598198
      py      :     1.485930
      dz2     :     0.003417  d :     0.012755
      dxz     :     0.002695
      dyz     :     0.001242
      dx2y2   :    -0.000959
      dxy     :     0.006360
      f0      :     0.000002  f :     0.000216
      f+1     :     0.000124
      f-1     :     0.000081
      f+2     :     0.000046
      f-2     :     0.000116
      f+3     :    -0.000107
      f-3     :    -0.000047
  5 H s       :     0.584195  s :     0.584195
      pz      :     0.035059  p :     0.072566
      px      :     0.025085
      py      :     0.012421
      dz2     :     0.003499  d :     0.049895
      dxz     :     0.005140
      dyz     :     0.012794
      dx2y2   :     0.017020
      dxy     :     0.011441
  6 H s       :     0.583719  s :     0.583719
      pz      :     0.033749  p :     0.070321
      px      :    -0.004345
      py      :     0.040917
      dz2     :     0.003054  d :     0.049736
      dxz     :     0.015806
      dyz     :     0.001227
      dx2y2   :     0.007602
      dxy     :     0.022047
  7 H s       :     0.598430  s :     0.598430
      pz      :     0.033956  p :     0.070794
      px      :     0.049925
      py      :    -0.013087
      dz2     :     0.003353  d :     0.047682
      dxz     :     0.000126
      dyz     :     0.014255
      dx2y2   :     0.007959
      dxy     :     0.021988
  8 H s       :     0.579447  s :     0.579447
      pz      :     0.040530  p :     0.072056
      px      :    -0.006173
      py      :     0.037700
      dz2     :     0.002620  d :     0.049875
      dxz     :     0.018210
      dyz     :     0.002425
      dx2y2   :     0.015236
      dxy     :     0.011385
  9 H s       :     0.582851  s :     0.582851
      pz      :     0.036038  p :     0.074230
      px      :     0.031185
      py      :     0.007007
      dz2     :     0.003303  d :     0.048594
      dxz     :     0.007232
      dyz     :     0.009695
      dx2y2   :     0.023210
      dxy     :     0.005154
 10 H s       :     0.710963  s :     0.710963
      pz      :     0.026505  p :     0.109847
      px      :     0.046935
      py      :     0.036407
      dz2     :     0.006310  d :     0.018019
      dxz     :     0.002225
      dyz     :     0.004474
      dx2y2   :     0.001696
      dxy     :     0.003314
 11 H s       :     0.709040  s :     0.709040
      pz      :     0.024725  p :     0.110900
      px      :     0.034521
      py      :     0.051654
      dz2     :     0.005939  d :     0.018182
      dxz     :     0.004063
      dyz     :     0.003428
      dx2y2   :     0.002618
      dxy     :     0.002134
 12 H s       :     0.708947  s :     0.708947
      pz      :     0.026436  p :     0.107482
      px      :     0.051155
      py      :     0.029890
      dz2     :     0.006845  d :     0.018089
      dxz     :     0.003259
      dyz     :     0.002162
      dx2y2   :     0.004003
      dxy     :     0.001820
 13 H s       :     0.712798  s :     0.712798
      pz      :     0.035653  p :     0.108942
      px      :     0.034400
      py      :     0.038888
      dz2     :     0.007116  d :     0.017993
      dxz     :     0.001469
      dyz     :     0.001692
      dx2y2   :     0.005132
      dxy     :     0.002584
 14 H s       :     0.708802  s :     0.708802
      pz      :     0.027225  p :     0.112139
      px      :     0.041426
      py      :     0.043489
      dz2     :     0.006674  d :     0.018277
      dxz     :     0.004140
      dyz     :     0.001942
      dx2y2   :     0.002120
      dxy     :     0.003401


                     *******************************
                     * LOEWDIN POPULATION ANALYSIS *
                     *******************************

----------------------
LOEWDIN ATOMIC CHARGES
----------------------
   0 O :    1.122081
   1 O :    1.122126
   2 O :    1.123342
   3 O :    1.120861
   4 O :    1.121068
   5 H :   -0.669608
   6 H :   -0.669003
   7 H :   -0.663614
   8 H :   -0.670049
   9 H :   -0.669938
  10 H :   -0.452757
  11 H :   -0.451704
  12 H :   -0.453896
  13 H :   -0.456675
  14 H :   -0.452236

-------------------------------
LOEWDIN REDUCED ORBITAL CHARGES
-------------------------------
  0 O s       :     2.946386  s :     2.946386
      pz      :     1.259930  p :     3.813231
      px      :     1.284461
      py      :     1.268840
      dz2     :     0.023900  d :     0.100308
      dxz     :     0.023474
      dyz     :     0.005390
      dx2y2   :     0.012993
      dxy     :     0.034551
      f0      :     0.000928  f :     0.017993
      f+1     :     0.005171
      f-1     :     0.002926
      f+2     :     0.001635
      f-2     :     0.000871
      f+3     :     0.005517
      f-3     :     0.000945
  1 O s       :     2.946352  s :     2.946352
      pz      :     1.257246  p :     3.813335
      px      :     1.241437
      py      :     1.314651
      dz2     :     0.026172  d :     0.100160
      dxz     :     0.004947
      dyz     :     0.022219
      dx2y2   :     0.027670
      dxy     :     0.019152
      f0      :     0.001279  f :     0.018027
      f+1     :     0.002529
      f-1     :     0.005603
      f+2     :     0.001630
      f-2     :     0.000588
      f+3     :     0.004488
      f-3     :     0.001911
  2 O s       :     2.946288  s :     2.946288
      pz      :     1.279733  p :     3.812317
      px      :     1.317066
      py      :     1.215518
      dz2     :     0.021790  d :     0.100023
      dxz     :     0.018187
      dyz     :     0.010656
      dx2y2   :     0.037093
      dxy     :     0.012298
      f0      :     0.000461  f :     0.018030
      f+1     :     0.004804
      f-1     :     0.003133
      f+2     :     0.000917
      f-2     :     0.002142
      f+3     :     0.001995
      f-3     :     0.004578
  3 O s       :     2.948092  s :     2.948092
      pz      :     1.326420  p :     3.813868
      px      :     1.197938
      py      :     1.289511
      dz2     :     0.014159  d :     0.099470
      dxz     :     0.013518
      dyz     :     0.014155
      dx2y2   :     0.028890
      dxy     :     0.028747
      f0      :     0.000748  f :     0.017709
      f+1     :     0.002185
      f-1     :     0.002634
      f+2     :     0.000534
      f-2     :     0.004182
      f+3     :     0.001644
      f-3     :     0.005782
  4 O s       :     2.947017  s :     2.947017
      pz      :     1.267648  p :     3.813873
      px      :     1.293421
      py      :     1.252804
      dz2     :     0.022443  d :     0.100004
      dxz     :     0.009230
      dyz     :     0.020089
      dx2y2   :     0.012620
      dxy     :     0.035623
      f0      :     0.000659  f :     0.018037
      f+1     :     0.004010
      f-1     :     0.004109
      f+2     :     0.000661
      f-2     :     0.002041
      f+3     :     0.003449
      f-3     :     0.003109
  5 H s       :     0.536820  s :     0.536820
      pz      :     0.137778  p :     0.621631
      px      :     0.194178
      py      :     0.289675
      dz2     :     0.055777  d :     0.511157
      dxz     :     0.049916
      dyz     :     0.108388
      dx2y2   :     0.144428
      dxy     :     0.152648
  6 H s       :     0.537059  s :     0.537059
      pz      :     0.135814  p :     0.621082
      px      :     0.336071
      py      :     0.149198
      dz2     :     0.052896  d :     0.510861
      dxz     :     0.146417
      dyz     :     0.012606
      dx2y2   :     0.149235
      dxy     :     0.149707
  7 H s       :     0.539216  s :     0.539216
      pz      :     0.138332  p :     0.616820
      px      :     0.139011
      py      :     0.339477
      dz2     :     0.049441  d :     0.507577
      dxz     :     0.001504
      dyz     :     0.159537
      dx2y2   :     0.152992
      dxy     :     0.144104
  8 H s       :     0.537180  s :     0.537180
      pz      :     0.143658  p :     0.621954
      px      :     0.312987
      py      :     0.165309
      dz2     :     0.051145  d :     0.510915
      dxz     :     0.138051
      dyz     :     0.020891
      dx2y2   :     0.149114
      dxy     :     0.151714
  9 H s       :     0.536937  s :     0.536937
      pz      :     0.137862  p :     0.621597
      px      :     0.226032
      py      :     0.257703
      dz2     :     0.055126  d :     0.511404
      dxz     :     0.061116
      dyz     :     0.096641
      dx2y2   :     0.147143
      dxy     :     0.151377
 10 H s       :     0.579151  s :     0.579151
      pz      :     0.221416  p :     0.526590
      px      :     0.167959
      py      :     0.137215
      dz2     :     0.109157  d :     0.347016
      dxz     :     0.089944
      dyz     :     0.080866
      dx2y2   :     0.028211
      dxy     :     0.038839
 11 H s       :     0.578313  s :     0.578313
      pz      :     0.224679  p :     0.526228
      px      :     0.130876
      py      :     0.170673
      dz2     :     0.112011  d :     0.347163
      dxz     :     0.083834
      dyz     :     0.090810
      dx2y2   :     0.028063
      dxy     :     0.032444
 12 H s       :     0.579656  s :     0.579656
      pz      :     0.219367  p :     0.527360
      px      :     0.171457
      py      :     0.136536
      dz2     :     0.107826  d :     0.346880
      dxz     :     0.082775
      dyz     :     0.075850
      dx2y2   :     0.046092
      dxy     :     0.034337
 13 H s       :     0.581042  s :     0.581042
      pz      :     0.199609  p :     0.528444
      px      :     0.152528
      py      :     0.176307
      dz2     :     0.084667  d :     0.347188
      dxz     :     0.063316
      dyz     :     0.069275
      dx2y2   :     0.075911
      dxy     :     0.054020
 14 H s       :     0.578104  s :     0.578104
      pz      :     0.219779  p :     0.526688
      px      :     0.149829
      py      :     0.157080
      dz2     :     0.107525  d :     0.347444
      dxz     :     0.079907
      dyz     :     0.086718
      dx2y2   :     0.036704
      dxy     :     0.036589


                      *****************************
                      * MAYER POPULATION ANALYSIS *
                      *****************************

  NA   - Mulliken gross atomic population
  ZA   - Total nuclear charge
  QA   - Mulliken gross atomic charge
  VA   - Mayer's total valence
  BVA  - Mayer's bonded valence
  FA   - Mayer's free valence

  ATOM       NA         ZA         QA         VA         BVA        FA
  0 O      8.4575     8.0000    -0.4575     1.9078     1.9078    -0.0000
  1 O      8.4534     8.0000    -0.4534     1.9032     1.9032     0.0000
  2 O      8.4478     8.0000    -0.4478     1.9080     1.9080     0.0000
  3 O      8.4653     8.0000    -0.4653     1.9072     1.9072    -0.0000
  4 O      8.4512     8.0000    -0.4512     1.9087     1.9087     0.0000
  5 H      0.7067     1.0000     0.2933     0.9888     0.9888    -0.0000
  6 H      0.7038     1.0000     0.2962     0.9843     0.9843     0.0000
  7 H      0.7169     1.0000     0.2831     0.9996     0.9996     0.0000
  8 H      0.7014     1.0000     0.2986     0.9834     0.9834     0.0000
  9 H      0.7057     1.0000     0.2943     0.9866     0.9866     0.0000
 10 H      0.8388     1.0000     0.1612     1.0950     1.0950    -0.0000
 11 H      0.8381     1.0000     0.1619     1.0966     1.0966    -0.0000
 12 H      0.8345     1.0000     0.1655     1.0827     1.0827    -0.0000
 13 H      0.8397     1.0000     0.1603     1.0928     1.0928    -0.0000
 14 H      0.8392     1.0000     0.1608     1.0997     1.0997     0.0000

  Mayer bond orders larger than 0.100000
B(  0-O ,  5-H ) :   0.8800 B(  0-O , 10-H ) :   1.0604 B(  1-O ,  6-H ) :   0.8788 
B(  1-O , 11-H ) :   1.0583 B(  2-O ,  7-H ) :   0.8903 B(  2-O , 12-H ) :   1.0553 
B(  3-O ,  8-H ) :   0.8761 B(  3-O , 13-H ) :   1.0655 B(  4-O ,  9-H ) :   0.8801 
B(  4-O , 14-H ) :   1.0603 

-------
TIMINGS
-------

Total SCF time: 0 days 0 hours 0 min 9 sec 

Total time                  ....       9.237 sec
Sum of individual times     ....       8.874 sec  ( 96.1%)

Fock matrix formation       ....       7.515 sec  ( 81.3%)
  XC integration            ....       1.627 sec  ( 21.6% of F)
    Basis function eval.    ....       0.261 sec  ( 16.0% of XC)
    Density eval.           ....       0.336 sec  ( 20.6% of XC)
    XC-Functional eval.     ....       0.030 sec  (  1.8% of XC)
    XC-Potential eval.      ....       0.517 sec  ( 31.8% of XC)
Diagonalization             ....       0.378 sec  (  4.1%)
Density matrix formation    ....       0.046 sec  (  0.5%)
Population analysis         ....       0.037 sec  (  0.4%)
Initial guess               ....       0.238 sec  (  2.6%)
Orbital Transformation      ....       0.000 sec  (  0.0%)
Orbital Orthonormalization  ....       0.000 sec  (  0.0%)
DIIS solution               ....       0.218 sec  (  2.4%)
SOSCF solution              ....       0.132 sec  (  1.4%)
Grid generation             ....       0.312 sec  (  3.4%)


           ************************************************************
           *        Program running with 24 parallel MPI-processes    *
           *              working on a common directory               *
           ************************************************************

------------------------------------------------------------------------------
                                ORCA  MP2 
------------------------------------------------------------------------------

Freezing NCore=10 chemical core electrons

----------------------
RI-MP2 ENERGY+GRADIENT
----------------------
Dimension of the basis                    ...  460
Memory devoted to MP2                     ... 5000 MB   
Data format for buffers                   ... DOUBLE
Compression type for matrix containers    ... UNCOMPRESSED
Scaling for aa/bb pairs                   ...   4.000e-01
Scaling for ab pairs                      ...   4.700e-01
Overall scaling of the MP2 energy         ...   1.000e+00
Calculating two index integrals           ... done (    0.002 sec)
Cholesky decomposition of the V-matrix    ... done
Cholesky decomposition of V**-1           ... done (    0.010 sec)

-----------------
RI-TRANSFORMATION (AUX index driven)
-----------------

Dimension of the orbital-basis         ... 460
Dimension of the aux-basis             ... 530
Transformation of internal MOs         ...    0-  24
Transformation of internal/external MOs...    0-  24 to   25- 459
Number Format for Storage              ... Double (8 Byte)
Integral mode                          ... Direct

First Phase: integral generation and transformation of MO indices
  Aux angular momentum 0               ... done (    0.022 sec)
  Aux angular momentum 1               ... done (    0.047 sec)
  Aux angular momentum 2               ... done (    0.043 sec)
  Aux angular momentum 3               ... done (    0.026 sec)
  Aux angular momentum 4               ... done (    0.034 sec)
Closing buffer VIJ ( 0.00 GB; CompressionRatio= 1.00)
Closing buffer VIA ( 0.04 GB; CompressionRatio= 1.00)
  Phase 1 completed in     0.255 sec
Second Phase: sorting and transformation of aux index

IJ-Transformation
Memory available                       ... 4977 MB 
Max. # MO pairs treated in a batch     ... 2    
# of internal orbitals                 ... 25
# batches for internal orbitals        ... 1
Closing buffer IJV ( 0.00 GB; CompressionRatio= 1.00)
(ij|v) transformation done in     0.016 sec

IA-Transformation
Memory available                       ... 4977 MB 
Max. # MO pairs treated in a batch     ... 2    
# of internal orbitals                 ... 25
# batches for internal orbitals        ... 1
Closing buffer IAV ( 0.00 GB; CompressionRatio= 1.00)
(ia|v) transformation done in     0.027 sec

  Phase 2 completed in     0.093 sec
RI-Integral transformation completed in     0.352 sec
Opening buffers                              ... done
Frozen core precalculation                   ... done

Starting loop over batches of integrals:

Operator 0  - window                       ... (  5- 24)x( 25-459)
Operator 0  - Memory available             ...  5000 MB
Operator 0  - Memory needed per MO         ...   3.5 MB
Operator 0  - Number of orbitals per batch ... 1
Operator 0  - Number of batches            ... 1

OPERATOR  0   PASS   0:  MOs     5 ...    5 +    6 ...    6 +    7 ...    7 +    8 ...    8
                            +    9 ...    9 +   10 ...   10 +   11 ...   11 +   12 ...   12
                            +   13 ...   13 +   14 ...   14 +   15 ...   15 +   16 ...   16
                            +   17 ...   17 +   18 ...   18 +   19 ...   19 +   20 ...   20
                            +   21 ...   21 +   22 ...   22 +   23 ...   23 +   24 ...   24
  Reading integrals       ... ok
Closing buffer GIPV ( 0.00 GB; CompressionRatio= 1.00)
Time spent in pair loops =     2.298 sec
Deleting buffer (Ka|jb)[aa] ...done

-----------------------------------------------
 RI-MP2 CORRELATION ENERGY:     -0.683053333 Eh
-----------------------------------------------


---------------------
MP2 DENSITY FORMATION
---------------------

Completing the external part of the density      ... done
Storing the unrelaxed density                    ... done

Calculating the xc-kernel                        ... done
Calculating G(D)                                 ... done
Completing the Lagrangian                        ... done
Solving the Z-vector equations                   ... 

------------------------------------------------------------------------------
                           ORCA CP-SCF CALCULATION
------------------------------------------------------------------------------

Input orbitals are from        ... 05_H2O_5.gbw
Input Perturbation             ... 05_H2O_5.pin.tmp
Wavefunction output            ... 05_H2O_5.pout.tmp
Perturbation mode              ... Real perturbation (singlet)
Solver                         ... POPLE
Max. number of iterations      ... 128
Convergence tolerance          ... 1.000e-08
Integral handling              ... Direct
Number of perturbations        ... 1
Number of operators            ... 1
Orbital ranges used for CP-SCF:
 Operator 0:  Orbitals   0... 24  to  25...459
DFT calculation                         ... on
Exchange functional (SCF)               ... B88
Exchange functional (CP-SCF)            ... B88
   X-Alpha parameter    XAlpha (SCF)    ...  0.666667
   X-Alpha parameter    XAlpha (CP-SCF) ...  0.666667
   Becke's b parameter  XBeta (SCF)     ...  0.004200
   Becke's b parameter  XBeta (CP-SCF)  ...  0.004200
Correlation functional (SCF)            ... LYP
Correlation functional (CP-SCF)         ... LYP
 LDA part of GGA corr.  LDAOpt (SCF)    ... VWN-5
 LDA part of GGA corr.  LDAOpt (CP-SCF) ... VWN-5
Hybrid DFT                              ... on
   Exchange mixing (SCF)                ...  0.710
   Exchange mixing (CP-SCF)             ...  0.710
   GGA exch. scaling(SCF)               ...  0.290
   GGA exch. scaling (CP-SCF)           ...  0.290
   GGA corr. scaling (SCF)              ...  0.540
   GGA corr. scaling (CP-SCF)           ...  0.540
Variables per vector in CP-SCF ... 10875
Number of vectors sought       ... 1
Recalculating density on grid  ... done
Calculating the xc-kernel      ... done
     CP-SCF ITERATION   0: 
     CP-SCF ITERATION   1:      0.000090528422
     CP-SCF ITERATION   2:      0.000004319354
     CP-SCF ITERATION   3:      0.000000145862
     CP-SCF ITERATION   4:      0.000000005614
done
Finalizing the relaxed density                   ... done
Transforming P to the AO basis                   ... done
Storing the relaxed density                      ... done

------------------------------------
ENERGY WEIGHTED DENSITY FINALIZATION
------------------------------------

Gathering the parts of the W-matrix              ... done
Forming the Z-density                            ... done
Transforming Z to the AO basis                   ... done
Calculating G(Z)                                 ... done
Finalizing the W-matrix                          ... done
Transforming W to the AO basis and storing       ... done
Entering the RIJONX and RIJCOSX sections
Starting the three-index derivative integrals:
Operator 0  - Memory available             ...  5000 MB
Operator 0  - Memory needed per MO         ...   3.7 MB
Operator 0  - Number of orbitals per batch ... 1
Operator 0  - Number of batches            ... 1

OPERATOR  0   PASS   0:  MOs     5 ...    5 +    6 ...    6 +    7 ...    7 +    8 ...    8
                            +    9 ...    9 +   10 ...   10 +   11 ...   11 +   12 ...   12
                            +   13 ...   13 +   14 ...   14 +   15 ...   15 +   16 ...   16
                            +   17 ...   17 +   18 ...   18 +   19 ...   19 +   20 ...   20
                            +   21 ...   21 +   22 ...   22 +   23 ...   23 +   24 ...   24

----------------------------------
MP2 DERIVATIVE INTEGRAL GENERATION
----------------------------------


Input Correlated Electron Density   ... 05_H2O_5.pmp2re
Input Energy Weighted Density       ... 05_H2O_5.wmp2.tmp
Input SCF Electron Density          ... 05_H2O_5.scfp

One-Electron Terms    ...
                        ... One-Electron Terms done
Prescreening matrices              ... done
Exchange-correlation gradient    ... done
Dispersion correction            ... done

                *********************************************
                * UNRELAXED MP2 DENSITY POPULATION ANALYSIS *
                *********************************************

------------------------------------------------------------------------------
                           ORCA POPULATION ANALYSIS
------------------------------------------------------------------------------
Input electron density              ... 05_H2O_5.pmp2ur
BaseName (.gbw .S,...)              ... 05_H2O_5

[...]
     43      -0.032180   0.013709  -0.005236  -0.026422  -0.001025  -0.023998
     44      -0.041651   0.036382  -0.043157  -0.041915   0.027438   0.011441
                 30         31         32         33         34         35    
      0      -0.003228  -0.001120   0.005502  -0.002419  -0.007288  -0.013968
      1       0.033005  -0.000473  -0.031527   0.006693   0.025341  -0.026119
      2      -0.026187   0.004208   0.024185  -0.002661  -0.018004  -0.002157
      3      -0.027857  -0.025238  -0.011781  -0.012356   0.018208  -0.026634
      4      -0.010922  -0.012601  -0.007530  -0.006706   0.012516   0.004950
      5      -0.028874  -0.023396  -0.008122  -0.013612   0.017095   0.000609
      6       0.007264   0.009488   0.017326  -0.027306   0.018834  -0.003410
      7      -0.007773  -0.011156  -0.013317   0.021674  -0.011809   0.022149
      8      -0.013001  -0.014835  -0.020597   0.027754  -0.016988   0.001114
      9      -0.002829   0.009997  -0.006477  -0.009384  -0.001136   0.025546
     10      -0.012537   0.029611  -0.034142  -0.026522  -0.017429   0.012335
     11      -0.008272   0.014988  -0.021632  -0.012228  -0.012042   0.000786
     12       0.024117  -0.032402  -0.003169  -0.024530  -0.025632   0.020013
     13      -0.005487   0.007037  -0.001873   0.000935   0.000556  -0.021191
     14      -0.017550   0.025078  -0.000583   0.016156   0.017953   0.001956
     15       0.196336  -0.013746  -0.209325   0.042132   0.192830   0.230856
     16      -0.174701   0.007046   0.171398  -0.037445  -0.149136   0.413489
     17       0.392397  -0.032386  -0.390955   0.068320   0.318971   0.071067
     18       0.079810   0.072904   0.035891   0.034079  -0.056223   0.427192
     19       0.219285   0.211314   0.094719   0.122320  -0.192362  -0.084125
     20       0.406382   0.361481   0.157126   0.208655  -0.293071  -0.043492
     21      -0.106449  -0.119965  -0.224747   0.315447  -0.226927   0.051188
     22      -0.015630  -0.008784  -0.036996   0.034735  -0.034075  -0.359288
     23       0.150909   0.191533   0.279864  -0.427602   0.266902   0.012435
     24      -0.050338   0.120145  -0.154487  -0.121136  -0.090344  -0.418767
     25       0.128926  -0.283404   0.360912   0.253441   0.201941  -0.181375
     26       0.100320  -0.237342   0.285368   0.230389   0.149496   0.011928
     27      -0.163546   0.227174   0.027531   0.187564   0.205764  -0.313575
     28      -0.096393   0.144112   0.013079   0.125582   0.144579   0.345341
     29       0.271792  -0.384833  -0.011277  -0.280587  -0.302699  -0.067309
     30      -0.129399   0.011191   0.123697  -0.021422  -0.099758  -0.034453
     31      -0.347462   0.011340   0.349122  -0.071187  -0.289036   0.001200
     32       0.033988  -0.005383  -0.029833   0.003464   0.022072  -0.044018
     33       0.358614   0.333774   0.155475   0.180688  -0.267848  -0.010606
     34      -0.022000  -0.011283   0.000306  -0.008092   0.006748   0.028772
     35       0.054306   0.044781   0.017475   0.025301  -0.033605   0.040982
     36      -0.034770  -0.049806  -0.082275   0.130484  -0.084226   0.021976
     37       0.130380   0.161483   0.259127  -0.383574   0.249390   0.020174
     38       0.033469   0.038382   0.057813  -0.081448   0.051856  -0.031918
     39       0.102013  -0.253775   0.286840   0.238571   0.145387   0.032847
     40       0.070913  -0.199023   0.204129   0.195469   0.097389  -0.026359
     41       0.022253  -0.038934   0.058644   0.030542   0.033808  -0.027276
     42      -0.212066   0.295471   0.019168   0.219765   0.233955  -0.011208
     43       0.165646  -0.229901  -0.012872  -0.168935  -0.181064  -0.032800
     44       0.024303  -0.033201   0.000328  -0.021619  -0.023478   0.040982
                 36         37         38         39         40         41    
      0      -0.012129  -0.012274   0.015136   0.005406  -0.002900  -0.036158
      1      -0.023856  -0.025093   0.029603   0.011194  -0.000526   0.000068
      2      -0.002359  -0.001457   0.002889   0.000756  -0.003889  -0.051159
      3      -0.032711   0.022779  -0.017710  -0.030754  -0.000140   0.001477
      4       0.005009  -0.003777   0.003091   0.004654   0.000075  -0.002116
      5       0.000388  -0.001086   0.000912   0.000608   0.000142  -0.003429
      6       0.000135   0.006336  -0.001577   0.008168  -0.000042   0.000028
      7      -0.002217  -0.032859   0.006277  -0.043226   0.000054  -0.000137
      8       0.000648  -0.002028   0.000831  -0.002339   0.000018   0.000058
      9      -0.034599  -0.012177  -0.022934   0.019344   0.001210  -0.000093
     10      -0.017875  -0.006693  -0.012165   0.009547  -0.001782   0.000069
     11      -0.001075  -0.000679  -0.000840   0.000655  -0.001735   0.000106
     12      -0.013285   0.022628   0.026347  -0.002063   0.012425  -0.000452
     13       0.012974  -0.022793  -0.026434   0.002538   0.035641  -0.003257
     14      -0.000588   0.002513   0.002737  -0.000521  -0.049954   0.003874
     15       0.216685   0.222056  -0.276346  -0.101429   0.007620   0.032838
     16       0.373140   0.395671  -0.473281  -0.177661   0.014307   0.089058
     17       0.069045   0.071279  -0.092126  -0.034435   0.001177  -0.011234
     18       0.527517  -0.364791   0.290250   0.503129   0.001589  -0.014892
     19      -0.106033   0.079913  -0.064061  -0.105869  -0.000108   0.002838
     20      -0.057650   0.042089  -0.035731  -0.060616  -0.000122   0.000457
     21       0.001023  -0.072651   0.015865  -0.089488   0.000314  -0.000444
     22       0.033210   0.543035  -0.105265   0.726220  -0.000891   0.001661
     23      -0.005465  -0.020342   0.001504  -0.029977  -0.000139  -0.000048
     24       0.585693   0.208355   0.398127  -0.337136   0.008174  -0.000018
     25       0.246293   0.093723   0.165863  -0.134647   0.001603   0.000319
     26      -0.020710  -0.007345  -0.017432   0.014432  -0.003537   0.000152
     27       0.204403  -0.344278  -0.406572   0.035574   0.074422  -0.013238
     28      -0.222491   0.390085   0.461605  -0.043156  -0.058112   0.013700
     29       0.044399  -0.079246  -0.097532   0.009021  -0.011731  -0.003246
     30      -0.025183  -0.038681   0.034873   0.016820   0.040614   0.538575
     31      -0.007286   0.003102   0.010466   0.000803  -0.008057  -0.092124
     32      -0.033710  -0.050456   0.046929   0.022055   0.061884   0.823458
     33      -0.014529   0.015196  -0.013376  -0.018911   0.000424  -0.006961
     34       0.037677  -0.014622   0.011914   0.031822  -0.001347   0.033555
     35       0.055065  -0.025665   0.021605   0.050630  -0.002472   0.055304
     36       0.008597  -0.034060   0.011186  -0.035668   0.000284   0.000442
     37      -0.002202  -0.032940   0.006610  -0.047612   0.000160   0.000439
     38      -0.007219   0.051901  -0.015287   0.064849  -0.000401  -0.000930
     39      -0.049310  -0.020128  -0.036772   0.029601  -0.027477   0.001544
     40       0.032846   0.023825   0.023894  -0.008391   0.026737  -0.001495
     41       0.040118   0.019809   0.030349  -0.021856   0.029620  -0.001677
     42       0.014675  -0.004206  -0.005512  -0.004093  -0.273471   0.020812
     43       0.026958  -0.034028  -0.043647   0.001231  -0.505400   0.037326
     44      -0.036455   0.041422   0.054087  -0.000771   0.805314  -0.059905
                  42         43         44    
      0       0.002584   0.000960   0.000032
      1       0.000554   0.000165  -0.000157
      2       0.003248   0.001219   0.000083
      3       0.012851   0.005178   0.000465
      4      -0.030416  -0.010816  -0.000974
      5      -0.049016  -0.017248  -0.001515
      6       0.009339  -0.026899  -0.005250
      7       0.010038  -0.026527  -0.005904
      8      -0.015815   0.044518   0.008750
      9      -0.001445   0.007865  -0.039296
     10       0.001023  -0.005342   0.030777
     11       0.001266  -0.006856   0.036423
     12       0.000111  -0.000043   0.001071
     13       0.000344  -0.000220   0.001353
     14      -0.000478   0.000316  -0.002319
     15      -0.007759  -0.002758   0.000946
     16      -0.014827  -0.004909   0.001861
     17      -0.003248  -0.000998   0.000405
     18      -0.085727  -0.041062  -0.003868
     19       0.004078   0.003779   0.000467
     20      -0.016698  -0.002152   0.000138
     21       0.010148  -0.026984  -0.006695
     22      -0.041169   0.086446   0.026325
     23      -0.006322   0.020219   0.005928
     24       0.004353  -0.023863   0.074127
     25       0.002163  -0.013814   0.056299
     26       0.000336  -0.002307   0.016763
     27       0.000843  -0.000772  -0.002106
     28      -0.000987   0.000157   0.004711
     29      -0.000005   0.000206  -0.002422
     30      -0.032515  -0.012364  -0.000991
     31       0.006105   0.002315   0.000128
     32      -0.050101  -0.018933  -0.001322
     33      -0.115959  -0.040001  -0.003427
     34       0.478503   0.167192   0.014669
     35       0.795173   0.277705   0.024238
     36      -0.161444   0.452526   0.089657
     37      -0.117138   0.332339   0.066019
     38       0.258728  -0.727795  -0.143787
     39       0.018544  -0.100797   0.546703
     40      -0.019001   0.101700  -0.544077
     41      -0.020410   0.110682  -0.596001
     42      -0.002538   0.001426  -0.012201
     43      -0.004756   0.003160  -0.024702
     44       0.007489  -0.005017   0.038616


-----------
IR SPECTRUM  
-----------

 Mode    freq (cm**-1)   T**2         TX         TY         TZ
-------------------------------------------------------------------
   6:        34.45    2.165394  (  0.091177  -1.456611   0.188055)
   7:        44.91    0.004853  (  0.045923  -0.052344  -0.001945)
   8:        63.08    0.905396  (  0.090176  -0.128932   0.938425)
   9:        66.32    0.830368  ( -0.069648  -0.095397  -0.903558)
  10:       184.17    3.198831  ( -1.365239  -0.034012  -1.154902)
  11:       189.31   20.036814  (  4.181099   0.524050   1.510165)
  12:       213.96   96.096262  (  3.527029  -1.560169   9.012336)
  13:       230.30   46.270346  (  6.677055  -1.239298   0.389139)
  14:       240.21   15.768462  ( -0.805654   3.856971   0.493111)
  15:       247.27  161.202541  ( 12.566315  -1.392250   1.162716)
  16:       281.26  258.844299  ( -4.275003 -15.508443  -0.238411)
  17:       301.23   42.496001  ( -6.177787   2.064507   0.262215)
  18:       305.31    8.435404  (  1.976859   1.945629   0.861370)
  19:       309.00   12.185878  (  3.011269   1.665248  -0.587439)
  20:       411.90   50.936350  ( -6.374116   2.987454   1.175633)
  21:       431.89   17.374287  ( -1.685226   3.811192  -0.095488)
  22:       449.55   11.519306  (  1.051008  -3.171711  -0.595767)
  23:       468.20   25.224622  (  2.523379  -0.866249   4.255207)
  24:       525.40   62.975053  (  2.489597   5.223325  -5.430823)
  25:       716.20   25.882449  ( -3.850531  -0.362645  -3.305200)
  26:       792.78  165.877656  (  1.316169   0.121756 -12.811344)
  27:       862.31  154.095346  (-11.269952  -2.984830  -4.263134)
  28:       881.55  152.956610  (  1.272240 -12.068606   2.384692)
  29:       982.52    9.865661  ( -2.593161   0.802319   1.580336)
  30:      1658.93   79.751272  (  0.176236   0.452379   8.917150)
  31:      1668.57   18.756978  (  4.019979  -1.475679  -0.647390)
  32:      1680.18   77.860617  (  0.195095   8.397125   2.703859)
  33:      1697.19   53.190619  (  7.176822  -0.158660  -1.287895)
  34:      1705.66    2.276047  ( -0.267473  -0.987839   1.108458)
  35:      3364.31   19.516298  ( -0.716498   4.358508   0.079618)
  36:      3448.22  2171.783906  ( 46.041146   7.208280  -0.193505)
  37:      3457.37  2023.295556  ( -7.737498  44.309795   0.262178)
  38:      3504.65   76.062574  (  0.568459  -0.233944  -8.699695)
  39:      3513.16   68.346123  (  0.918981   7.438194  -3.489251)
  40:      3910.54   80.908242  (  1.131338  -6.274077   6.345413)
  41:      3911.98   80.632885  (  5.408821   3.951038   5.980539)
  42:      3914.15   79.015626  ( -5.693104   1.475836   6.665291)
  43:      3915.08   69.912619  ( -0.788048   8.098915  -1.923326)
  44:      3916.91   79.596692  (  7.801974  -0.802157  -4.252345)

The first frequency considered to be a vibration is 6
The total number of vibrations considered is 39


--------------------------
THERMOCHEMISTRY AT 298.15K
--------------------------

Temperature         ... 298.15 K
Pressure            ... 1.00 atm
Total Mass          ... 90.07 AMU

Throughout the following assumptions are being made:
  (1) The electronic state is orbitally nondegenerate
  (2) There are no thermally accessible electronically excited states
  (3) Hindered rotations indicated by low frequency modes are not
      treated as such but are treated as vibrations and this may
      cause some error
  (4) All equations used are the standard statistical mechanics
      equations for an ideal gas
  (5) All vibrations are strictly harmonic

freq.      34.45  E(vib)   ...       0.54 
freq.      44.91  E(vib)   ...       0.53 
freq.      63.08  E(vib)   ...       0.51 
freq.      66.32  E(vib)   ...       0.50 
freq.     184.17  E(vib)   ...       0.37 
freq.     189.31  E(vib)   ...       0.36 
freq.     213.96  E(vib)   ...       0.34 
freq.     230.30  E(vib)   ...       0.32 
freq.     240.21  E(vib)   ...       0.31 
freq.     247.27  E(vib)   ...       0.31 
freq.     281.26  E(vib)   ...       0.28 
freq.     301.23  E(vib)   ...       0.26 
freq.     305.31  E(vib)   ...       0.26 
freq.     309.00  E(vib)   ...       0.26 
freq.     411.90  E(vib)   ...       0.19 
freq.     431.89  E(vib)   ...       0.18 
freq.     449.55  E(vib)   ...       0.17 
freq.     468.20  E(vib)   ...       0.16 
freq.     525.40  E(vib)   ...       0.13 
freq.     716.20  E(vib)   ...       0.07 
freq.     792.78  E(vib)   ...       0.05 
freq.     862.31  E(vib)   ...       0.04 
freq.     881.55  E(vib)   ...       0.04 
freq.     982.52  E(vib)   ...       0.02 
freq.    1658.93  E(vib)   ...       0.00 
freq.    1668.57  E(vib)   ...       0.00 
freq.    1680.18  E(vib)   ...       0.00 
freq.    1697.19  E(vib)   ...       0.00 
freq.    1705.66  E(vib)   ...       0.00 
freq.    3364.31  E(vib)   ...       0.00 
freq.    3448.22  E(vib)   ...       0.00 
freq.    3457.37  E(vib)   ...       0.00 
freq.    3504.65  E(vib)   ...       0.00 
freq.    3513.16  E(vib)   ...       0.00 
freq.    3910.54  E(vib)   ...       0.00 
freq.    3911.98  E(vib)   ...       0.00 
freq.    3914.15  E(vib)   ...       0.00 
freq.    3915.08  E(vib)   ...       0.00 
freq.    3916.91  E(vib)   ...       0.00 

------------
INNER ENERGY
------------

The inner energy is: U= E(el) + E(ZPE) + E(vib) + E(rot) + E(trans)
    E(el)   - is the total energy from the electronic structure calculation
              = E(kin-el) + E(nuc-el) + E(el-el) + E(nuc-nuc)
    E(ZPE)  - the the zero temperature vibrational energy from the frequency calculation
    E(vib)  - the the finite temperature correction to E(ZPE) due to population
              of excited vibrational states
    E(rot)  - is the rotational thermal energy
    E(trans)- is the translational thermal energy

Summary of contributions to the inner energy U:
Electronic energy                ...   -382.01447628 Eh
Zero point energy                ...      0.12416007 Eh      77.91 kcal/mol
Thermal vibrational correction   ...      0.00987064 Eh       6.19 kcal/mol
Thermal rotational correction    ...      0.00141627 Eh       0.89 kcal/mol
Thermal translational correction ...      0.00141627 Eh       0.89 kcal/mol
-----------------------------------------------------------------------
Total thermal energy                   -381.87761302 Eh


Summary of corrections to the electronic energy:
(perhaps to be used in another calculation)
Total thermal correction                  0.01270318 Eh       7.97 kcal/mol
Non-thermal (ZPE) correction              0.12416007 Eh      77.91 kcal/mol
-----------------------------------------------------------------------
Total correction                          0.13686325 Eh      85.88 kcal/mol


--------
ENTHALPY
--------

The enthalpy is H = U + kB*T
                kB is Boltzmann's constant
Total free energy                 ...   -381.87761302 Eh 
Thermal Enthalpy correction       ...      0.00094421 Eh       0.59 kcal/mol
-----------------------------------------------------------------------
Total Enthalpy                    ...   -381.87666881 Eh


Note: Only C1 symmetry has been detected, increase convergence thresholds 
      if your molecule has a higher symmetry. Symmetry factor of 1.0 is   
      used for the rotational entropy correction. 
 

Note: Rotational entropy computed according to Herzberg 
Infrared and Raman Spectra, Chapter V,1, Van Nostrand Reinhold, 1945 
Point Group:  C1, Symmetry Number:   1  
Rotational constants in cm-1:     0.068613     0.068217     0.034900 

Vibrational entropy computed according to the QRRHO of S. Grimme
Chem.Eur.J. 2012 18 9955


-------
ENTROPY
-------

The entropy contributions are T*S = T*(S(el)+S(vib)+S(rot)+S(trans))
     S(el)   - electronic entropy
     S(vib)  - vibrational entropy
     S(rot)  - rotational entropy
     S(trans)- translational entropy
The entropies will be listed as mutliplied by the temperature to get
units of energy

Electronic entropy                ...      0.00000000 Eh      0.00 kcal/mol
Vibrational entropy               ...      0.01760964 Eh     11.05 kcal/mol
Rotational entropy                ...      0.01362726 Eh      8.55 kcal/mol
Translational entropy             ...      0.01872320 Eh     11.75 kcal/mol
-----------------------------------------------------------------------
Final entropy term                ...      0.04996010 Eh     31.35 kcal/mol

In case the symmetry of your molecule has not been determined correctly
or in case you have a reason to use a different symmetry number we print 
out the resulting rotational entropy values for sn=1,12 :
 --------------------------------------------------------
|  sn= 1 | S(rot)=       0.01362726 Eh      8.55 kcal/mol|
|  sn= 2 | S(rot)=       0.01297280 Eh      8.14 kcal/mol|
|  sn= 3 | S(rot)=       0.01258997 Eh      7.90 kcal/mol|
|  sn= 4 | S(rot)=       0.01231834 Eh      7.73 kcal/mol|
|  sn= 5 | S(rot)=       0.01210766 Eh      7.60 kcal/mol|
|  sn= 6 | S(rot)=       0.01193551 Eh      7.49 kcal/mol|
|  sn= 7 | S(rot)=       0.01178996 Eh      7.40 kcal/mol|
|  sn= 8 | S(rot)=       0.01166389 Eh      7.32 kcal/mol|
|  sn= 9 | S(rot)=       0.01155268 Eh      7.25 kcal/mol|
|  sn=10 | S(rot)=       0.01145320 Eh      7.19 kcal/mol|
|  sn=11 | S(rot)=       0.01136321 Eh      7.13 kcal/mol|
|  sn=12 | S(rot)=       0.01128105 Eh      7.08 kcal/mol|
 --------------------------------------------------------


-------------------
GIBBS FREE ENERGY
-------------------

The Gibbs free energy is G = H - T*S

Total enthalpy                    ...   -381.87666881 Eh 
Total entropy correction          ...     -0.04996010 Eh    -31.35 kcal/mol
-----------------------------------------------------------------------
Final Gibbs free energy         ...   -381.92662891 Eh

For completeness - the Gibbs free energy minus the electronic energy
G-E(el)                           ...      0.08784737 Eh     55.12 kcal/mol


Total Time for Numerical Frequencies  :      4543.741 sec

Timings for individual modules:

Sum of individual times         ...      367.293 sec (=   6.122 min)
GTO integral calculation        ...        3.674 sec (=   0.061 min)   1.0 %
SCF iterations                  ...       24.228 sec (=   0.404 min)   6.6 %
MP2 module                      ...      339.187 sec (=   5.653 min)  92.3 %
Geometry relaxation             ...        0.204 sec (=   0.003 min)   0.1 %
                             ****ORCA TERMINATED NORMALLY****
TOTAL RUN TIME: 0 days 1 hours 20 minutes 41 seconds 171 msec
