
                                 *****************
                                 * O   R   C   A *
                                 *****************

           --- An Ab Initio, DFT and Semiempirical electronic structure package ---

                  #######################################################
                  #                        -***-                        #
                  #          Department of theory and spectroscopy      #
                  #               Directorship: Frank Neese             #
                  #        Max Planck Institute fuer Kohlenforschung    #
                  #                Kaiser Wilhelm Platz 1               #
                  #                 D-45470 Muelheim/Ruhr               #
                  #                      Germany                        #
                  #                                                     #
                  #                  All rights reserved                #
                  #                        -***-                        #
                  #######################################################


                         Program Version 4.2.0 -  RELEASE  -


 With contributions from (in alphabetic order):
   Daniel Aravena         : Magnetic Suceptibility
   Michael Atanasov       : Ab Initio Ligand Field Theory (pilot matlab implementation)
   Alexander A. Auer      : GIAO ZORA, VPT2
   Ute Becker             : Parallelization
   Giovanni Bistoni       : ED, misc. LED, open-shell LED, HFLED
   Martin Brehm           : Molecular dynamics
   Dmytro Bykov           : SCF Hessian
   Vijay G. Chilkuri      : MRCI spin determinant printing, contributions to CSF-ICE
   Dipayan Datta          : RHF DLPNO-CCSD density
   Achintya Kumar Dutta   : EOM-CC, STEOM-CC
   Dmitry Ganyushin       : Spin-Orbit,Spin-Spin,Magnetic field MRCI
   Miquel Garcia          : C-PCM Hessian, Gaussian charge scheme
   Yang Guo               : DLPNO-NEVPT2, CIM, IAO-localization
   Andreas Hansen         : Spin unrestricted coupled pair/coupled cluster methods
   Benjamin Helmich-Paris : CASSCF linear response (MC-RPA)
   Lee Huntington         : MR-EOM, pCC
   Robert Izsak           : Overlap fitted RIJCOSX, COSX-SCS-MP3, EOM
   Christian Kollmar      : KDIIS, OOCD, Brueckner-CCSD(T), CCSD density
   Simone Kossmann        : Meta GGA functionals, TD-DFT gradient, OOMP2, MP2 Hessian
   Martin Krupicka        : AUTO-CI
   Lucas Lang             : DCDCAS
   Dagmar Lenk            : GEPOL surface, SMD
   Dimitrios Liakos       : Extrapolation schemes; Compound Job, initial MDCI parallelization
   Dimitrios Manganas     : Further ROCIS development; embedding schemes
   Dimitrios Pantazis     : SARC Basis sets
   Taras Petrenko         : DFT Hessian,TD-DFT gradient, ASA, ECA, R-Raman, ABS, FL, XAS/XES, NRVS
   Peter Pinski           : DLPNO-MP2, DLPNO-MP2 Gradient
   Christoph Reimann      : Effective Core Potentials
   Marius Retegan         : Local ZFS, SOC
   Christoph Riplinger    : Optimizer, TS searches, QM/MM, DLPNO-CCSD(T), (RO)-DLPNO pert. Triples
   Tobias Risthaus        : Range-separated hybrids, TD-DFT gradient, RPA, STAB
   Michael Roemelt        : Original ROCIS implementation
   Masaaki Saitow         : Open-shell DLPNO-CCSD energy and density
   Barbara Sandhoefer     : DKH picture change effects
   Avijit Sen             : IP-ROCIS
   Kantharuban Sivalingam : CASSCF convergence, NEVPT2, FIC-MRCI
   Bernardo de Souza      : ESD, SOC TD-DFT
   Georgi Stoychev        : AutoAux, RI-MP2 NMR
   Willem Van den Heuvel  : Paramagnetic NMR
   Boris Wezisla          : Elementary symmetry handling
   Frank Wennmohs         : Technical directorship


 We gratefully acknowledge several colleagues who have allowed us to
 interface, adapt or use parts of their codes:
   Stefan Grimme, W. Hujo, H. Kruse,             : VdW corrections, initial TS optimization,
                  C. Bannwarth                     DFT functionals, gCP, sTDA/sTD-DF
   Ed Valeev, F. Pavosevic, A. Kumar             : LibInt (2-el integral package), F12 methods
   Garnet Chan, S. Sharma, J. Yang, R. Olivares  : DMRG
   Ulf Ekstrom                                   : XCFun DFT Library
   Mihaly Kallay                                 : mrcc  (arbitrary order and MRCC methods)
   Andreas Klamt, Michael Diedenhofen            : otool_cosmo (COSMO solvation model)
   Jiri Pittner, Ondrej Demel                    : Mk-CCSD
   Frank Weinhold                                : gennbo (NPA and NBO analysis)
   Christopher J. Cramer and Donald G. Truhlar   : smd solvation model
   Lars Goerigk                                  : TD-DFT with DH, B97 family of functionals
   V. Asgeirsson, H. Jonsson                     : NEB implementation
   FAccTs GmbH                                   : IRC, NEB, NEB-TS, Multilevel, MM, QM/MM, CI optimization
   S Lehtola, MJT Oliveira, MAL Marques          : LibXC Library


 Your calculation uses the libint2 library for the computation of 2-el integrals
 For citations please refer to: http://libint.valeyev.net

 Your ORCA version has been built with support for libXC version: 4.2.3
 For citations please refer to: https://tddft.org/programs/libxc/

 This ORCA versions uses:
   CBLAS   interface :  Fast vector & matrix operations
   LAPACKE interface :  Fast linear algebra routines
   SCALAPACK package :  Parallel linear algebra routines


Your calculation utilizes the atom-pairwise dispersion correction
with the Becke-Johnson damping scheme (D3BJ)
Cite in your paper:
S.Grimme, S.Ehrlich, L.Goerigk, J Comput Chem, (2011), 32, 1456–1465 
S.Grimme, J.Antony, S.Ehrlich and H.Krieg, J.Chem.Phys., 132, (2010), 154104 
   

----- Orbital basis set information -----
Your calculation utilizes the basis: aug-cc-pV(T+d)Z 
             Al - Ar: T.H. Dunning, Jr., K. A. Peterson and A. K. Wilson, J. Chem. Phys.
                      114, 9244 (2001)

----- AuxC basis set information -----
Your calculation utilizes the auxiliary basis: def2-TZVP/C
  H-La, Hf-Rn : A. Hellweg, C. Hattig, S. Hofener and W. Klopper, Theor. Chem. Acc. 117, 587 (2007).
        Ce-Lu : J. Chmela and M. E. Harding, Mol. Phys. (2018).

----- AuxJK basis set information -----
Your calculation utilizes the auxiliary basis: def2/JK
   H-Ba, Hf-Rn: F. Weigend, J. Comput. Chem. 29, 167 (2008).

================================================================================
                                        WARNINGS
                       Please study these warnings very carefully!
================================================================================


WARNING: The frozen-core approximation for MP2-gradient calculations is turned on by default.

WARNING: Geometry Optimization
  ===> : Switching off AutoStart
         For restart on a previous wavefunction, please use MOREAD

WARNING: There are different parametrizations of Gershom Martin's DSD-DFs
         for use with and without D3(BJ)!
         You are using the D3(BJ) parametrized version,
         consistent with the 2013 article (S. Kozuch and J. M. L. Martin, JCC 2013, 34, 2327)

WARNING: The frozen-core approximation is turned on by default for 
         the MP2 part of double-hybrid DFT.

INFO   : the flag for use of LIBINT has been found!

================================================================================
                                       INPUT FILE
================================================================================
NAME = 06_H2O_6_ring.in
|  1> #
|  2> # 06_H2O_6_ring dsd-blyp/aug-cc-pvt(+d)z
|  3> #
|  4> ! rijk ri-dsd-blyp/2013 d3bj aug-cc-pvt(+d)z def2/jk def2-tzvp/c grid4 nofinalgrid opt xyzfile numfreq
|  5> 
|  6> *xyz 0 1
|  7> O	0	2.709181	0.148099
|  8> H	-0.122498	3.233153	0.940879
|  9> H	-0.836919	2.216592	0.034772
| 10> O	-2.346219	-1.35459	0.148099
| 11> H	-1.501165	-1.833089	0.034772
| 12> H	-2.738743	-1.722662	0.940879
| 13> O	2.34622	1.354591	-0.148098
| 14> H	2.738743	1.722663	-0.940878
| 15> H	1.501165	1.83309	-0.034772
| 16> O	0	-2.709181	-0.148098
| 17> H	0.83692	-2.216591	-0.034772
| 18> H	0.122498	-3.233152	-0.940878
| 19> O	2.34622	-1.35459	0.148099
| 20> H	2.861241	-1.510489	0.940879
| 21> H	2.338085	-0.383502	0.034772
| 22> O	-2.346219	1.354591	-0.148098
| 23> H	-2.861241	1.51049	-0.940878
| 24> H	-2.338084	0.383502	-0.034772
| 25> *
| 26> 
| 27> %maxcore 5000
| 28> 
| 29> %pal
| 30> nprocs 24
| 31> end
| 32> 
| 33> 
| 34>                          ****END OF INPUT****
================================================================================

                       *****************************
                       * Geometry Optimization Run *
                       *****************************

Geometry optimization settings:
Update method            Update   .... BFGS
Choice of coordinates    CoordSys .... Z-matrix Internals
Initial Hessian          InHess   .... Almoef's Model

Convergence Tolerances:
Energy Change            TolE     ....  5.0000e-06 Eh
Max. Gradient            TolMAXG  ....  3.0000e-04 Eh/bohr
RMS Gradient             TolRMSG  ....  1.0000e-04 Eh/bohr
Max. Displacement        TolMAXD  ....  4.0000e-03 bohr
RMS Displacement         TolRMSD  ....  2.0000e-03 bohr
Strict Convergence                ....  False
------------------------------------------------------------------------------
                        ORCA OPTIMIZATION COORDINATE SETUP
------------------------------------------------------------------------------

The optimization will be done in new redundant internal coordinates
Making redundant internal coordinates   ...  (new redundants) done
Evaluating the initial hessian          ...  (Almloef) done
Evaluating the coordinates              ...  done
Calculating the B-matrix                .... done
Calculating the G-matrix                .... done
Diagonalizing the G-matrix              .... done
The first mode is                       ....   24
The number of degrees of freedom        ....   48

    -----------------------------------------------------------------
                    Redundant Internal Coordinates


    -----------------------------------------------------------------
         Definition                    Initial Value    Approx d2E/dq
    -----------------------------------------------------------------
      1. B(H   1,O   0)                  0.9582         0.523501   
      2. B(H   2,O   0)                  0.9777         0.487202   
      3. B(H   4,O   3)                  0.9777         0.487201   
      4. B(H   5,O   3)                  0.9582         0.523501   
      5. B(H   7,O   6)                  0.9582         0.523502   
      6. B(H   8,O   6)                  0.9777         0.487200   
      7. B(H   8,O   0)                  1.7477         0.028789   
      8. B(O   9,H   4)                  1.7477         0.028789   
      9. B(H  10,O   9)                  0.9777         0.487199   
     10. B(H  11,O   9)                  0.9582         0.523502   
     11. B(O  12,H  10)                  1.7477         0.028789   
     12. B(H  13,O  12)                  0.9581         0.523502   
     13. B(H  14,O  12)                  0.9777         0.487201   
     14. B(H  14,O   6)                  1.7477         0.028789   
     15. B(O  15,H   2)                  1.7477         0.028789   
     16. B(H  16,O  15)                  0.9582         0.523501   
     17. B(H  17,O   3)                  1.7477         0.028789   
     18. B(H  17,O  15)                  0.9777         0.487199   
     19. A(H   1,O   0,H   2)          105.1878         0.318783   
     20. A(H   2,O   0,H   8)          118.0709         0.208180   
     21. A(H   1,O   0,H   8)          118.0679         0.210135   
     22. L(O   0,H   2,O  15,H   8, 1) 180.8470         0.208180   
     23. L(O   0,H   2,O  15,H   8, 2) 179.2123         0.208180   
     24. A(H   4,O   3,H  17)          118.0709         0.208180   
     25. A(H   4,O   3,H   5)          105.1878         0.318783   
     26. A(H   5,O   3,H  17)          118.0679         0.210135   
     27. L(O   3,H   4,O   9,H  17, 1) 180.8470         0.208180   
     28. L(O   3,H   4,O   9,H  17, 2) 179.2123         0.208180   
     29. A(H   7,O   6,H   8)          105.1877         0.318783   
     30. A(H   8,O   6,H  14)          118.0709         0.208180   
     31. A(H   7,O   6,H  14)          118.0679         0.210135   
     32. L(O   0,H   8,O   6,H  14, 2) 179.2125         0.208180   
     33. L(O   0,H   8,O   6,H  14, 1) 180.8470         0.208180   
     34. A(H   4,O   9,H  11)          118.0679         0.210135   
     35. A(H   4,O   9,H  10)          118.0709         0.208180   
     36. A(H  10,O   9,H  11)          105.1878         0.318783   
     37. L(O   9,H  10,O  12,H   4, 2) 180.7875         0.208180   
     38. L(O   9,H  10,O  12,H   4, 1) 180.8470         0.208180   
     39. A(H  10,O  12,H  14)          118.0709         0.208180   
     40. A(H  10,O  12,H  13)          118.0679         0.210135   
     41. A(H  13,O  12,H  14)          105.1878         0.318783   
     42. L(O   6,H  14,O  12,H  10, 2) 180.7877         0.208180   
     43. L(O   6,H  14,O  12,H  10, 1) 180.8470         0.208180   
     44. A(H   2,O  15,H  17)          118.0709         0.208180   
     45. A(H   2,O  15,H  16)          118.0679         0.210135   
     46. A(H  16,O  15,H  17)          105.1877         0.318783   
     47. L(O   3,H  17,O  15,H   2, 2) 179.2125         0.208180   
     48. L(O   3,H  17,O  15,H   2, 1) 180.8470         0.208180   
     49. D(H  14,O   6,O   0,H   1)    107.3428         0.001501   
     50. D(H  14,O   6,O   0,H   2)    -21.3696         0.001501   
     51. D(H   7,O   6,O   0,H   1)   -118.5759         0.001501   
     52. D(H   7,O   6,O   0,H   2)    112.7117         0.001501   
     53. D(H  10,O   9,O   3,H  17)     21.3696         0.001501   
     54. D(H  10,O   9,O   3,H   5)   -112.7118         0.001501   
     55. D(H  11,O   9,O   3,H   5)    118.5759         0.001501   
     56. D(H  11,O   9,O   3,H  17)   -107.3427         0.001501   
     57. D(H  13,O  12,O   9,H   4)    107.3427         0.001501   
     58. D(H  13,O  12,O   9,H  11)   -118.5759         0.001501   
     59. D(H  10,O  12,O   6,H   8)     21.3696         0.001501   
     60. D(H  10,O  12,O   6,H   7)   -107.3427         0.001501   
     61. D(H  13,O  12,O   6,H   8)   -112.7118         0.001501   
     62. D(H  14,O  12,O   9,H  11)    112.7117         0.001501   
     63. D(H  13,O  12,O   6,H   7)    118.5760         0.001501   
     64. D(H  14,O  12,O   9,H   4)    -21.3696         0.001501   
     65. D(H   2,O  15,O   3,H   5)    107.3428         0.001501   
     66. D(H  16,O  15,O   3,H   5)   -118.5758         0.001501   
     67. D(H  16,O  15,O   3,H   4)    112.7118         0.001501   
     68. D(H  17,O  15,O   0,H   8)     21.3696         0.001501   
     69. D(H  17,O  15,O   0,H   1)   -112.7118         0.001501   
     70. D(H   2,O  15,O   3,H   4)    -21.3696         0.001501   
     71. D(H  16,O  15,O   0,H   8)   -107.3427         0.001501   
     72. D(H  16,O  15,O   0,H   1)    118.5759         0.001501   
    -----------------------------------------------------------------

Number of atoms                         .... 18
Number of degrees of freedom            .... 72

         *************************************************************
         *                GEOMETRY OPTIMIZATION CYCLE   1            *
         *************************************************************
---------------------------------
CARTESIAN COORDINATES (ANGSTROEM)
---------------------------------
  O      0.000000    2.709181    0.148099
  H     -0.122498    3.233153    0.940879
  H     -0.836919    2.216592    0.034772
  O     -2.346219   -1.354590    0.148099
  H     -1.501165   -1.833089    0.034772
  H     -2.738743   -1.722662    0.940879
  O      2.346220    1.354591   -0.148098
  H      2.738743    1.722663   -0.940878
  H      1.501165    1.833090   -0.034772
  O      0.000000   -2.709181   -0.148098
  H      0.836920   -2.216591   -0.034772
  H      0.122498   -3.233152   -0.940878
  O      2.346220   -1.354590    0.148099
  H      2.861241   -1.510489    0.940879
  H      2.338085   -0.383502    0.034772
  O     -2.346219    1.354591   -0.148098
  H     -2.861241    1.510490   -0.940878
  H     -2.338084    0.383502   -0.034772

----------------------------
CARTESIAN COORDINATES (A.U.)
----------------------------
  NO LB      ZA    FRAG     MASS         X           Y           Z
   0 O     8.0000    0    15.999    0.000000    5.119610    0.279867
   1 H     1.0000    0     1.008   -0.231488    6.109774    1.778004
   2 H     1.0000    0     1.008   -1.581548    4.188752    0.065710
   3 O     8.0000    0    15.999   -4.433711   -2.559804    0.279867
   4 H     1.0000    0     1.008   -2.836791   -3.464036    0.065710
   5 H     1.0000    0     1.008   -5.175474   -3.255359    1.778004
   6 O     8.0000    0    15.999    4.433713    2.559806   -0.279865
   7 H     1.0000    0     1.008    5.175474    3.255361   -1.778002
   8 H     1.0000    0     1.008    2.836791    3.464038   -0.065710
   9 O     8.0000    0    15.999    0.000000   -5.119610   -0.279865
  10 H     1.0000    0     1.008    1.581550   -4.188750   -0.065710
  11 H     1.0000    0     1.008    0.231488   -6.109772   -1.778002
  12 O     8.0000    0    15.999    4.433713   -2.559804    0.279867
  13 H     1.0000    0     1.008    5.406962   -2.854411    1.778004
  14 H     1.0000    0     1.008    4.418340   -0.724714    0.065710
  15 O     8.0000    0    15.999   -4.433711    2.559806   -0.279865
  16 H     1.0000    0     1.008   -5.406962    2.854412   -1.778002
  17 H     1.0000    0     1.008   -4.418338    0.724714   -0.065710

--------------------------------
INTERNAL COORDINATES (ANGSTROEM)
--------------------------------
 O      0   0   0     0.000000000000     0.00000000     0.00000000
 H      1   0   0     0.958150585862     0.00000000     0.00000000
 H      1   2   0     0.977711790054   105.18781736     0.00000000
 O      3   1   2     3.878681525474   142.52143282   247.82102299
 H      4   3   1     0.977711902784    96.36667252   339.89067784
 H      4   3   1     0.958150414163   122.49877551    92.44971867
 O      1   2   3     2.725324754834   118.15109370   225.39579020
 H      7   1   2     0.958150004495   104.57634301   241.42412740
 H      7   1   2     0.977712651193     0.63329954    76.51804352
 O      5   4   3     1.747705634994   179.01235653   141.32391584
 H     10   5   4     0.977713033960   118.07085768   232.04877984
 H     10   5   4     0.958150039005   118.06791005   103.67031070
 O     11  10   5     1.747705357502   179.01239509   210.64869987
 H     13  11  10     0.958149913658   118.06793374   256.33548560
 H     13  11  10     0.977712171806   118.07087130   127.95692155
 O      3   1   2     1.747705252868   179.01234488    15.13405571
 H     16   3   1     0.958150451174   118.06794621   103.66965614
 H     16   3   1     0.977713049121   118.07088973   232.04815538

---------------------------
INTERNAL COORDINATES (A.U.)
---------------------------
 O      0   0   0     0.000000000000     0.00000000     0.00000000
 H      1   0   0     1.810642202336     0.00000000     0.00000000
 H      1   2   0     1.847607521108   105.18781736     0.00000000
 O      3   1   2     7.329645843846   142.52143282   247.82102299
 H      4   3   1     1.847607734137    96.36667252   339.89067784
 H      4   3   1     1.810641877871   122.49877551    92.44971867
 O      1   2   3     5.150117412632   118.15109370   225.39579020
 H      7   1   2     1.810641103710   104.57634301   241.42412740
 H      7   1   2     1.847609148424     0.63329954    76.51804352
 O      5   4   3     3.302685012849   179.01235653   141.32391584
 H     10   5   4     1.847609871750   118.07085768   232.04877984
 H     10   5   4     1.810641168925   118.06791005   103.67031070
 O     11  10   5     3.302684488466   179.01239509   210.64869987
 H     13  11  10     1.810640932053   118.06793374   256.33548560
 H     13  11  10     1.847608242515   118.07087130   127.95692155
 O      3   1   2     3.302684290735   179.01234488    15.13405571
 H     16   3   1     1.810641947812   118.06794621   103.66965614
 H     16   3   1     1.847609900400   118.07088973   232.04815538

---------------------
BASIS SET INFORMATION
---------------------
There are 2 groups of distinct atoms

 Group   1 Type O   : 19s6p3d2f contracted to 5s4p3d2f pattern {88111/3111/111/11}
 Group   2 Type H   : 6s3p2d contracted to 4s3p2d pattern {3111/111/11}

Atom   0O    basis set group =>   1
Atom   1H    basis set group =>   2
Atom   2H    basis set group =>   2
Atom   3O    basis set group =>   1
Atom   4H    basis set group =>   2
Atom   5H    basis set group =>   2
Atom   6O    basis set group =>   1
Atom   7H    basis set group =>   2
Atom   8H    basis set group =>   2
Atom   9O    basis set group =>   1
Atom  10H    basis set group =>   2
Atom  11H    basis set group =>   2
Atom  12O    basis set group =>   1
Atom  13H    basis set group =>   2
Atom  14H    basis set group =>   2
Atom  15O    basis set group =>   1
Atom  16H    basis set group =>   2
Atom  17H    basis set group =>   2
---------------------------------
AUXILIARY/C BASIS SET INFORMATION
---------------------------------
There are 2 groups of distinct atoms

 Group   1 Type O   : 8s6p5d3f1g contracted to 8s6p4d3f1g pattern {11111111/111111/2111/111/1}
 Group   2 Type H   : 4s3p2d contracted to 4s2p1d pattern {1111/21/2}

Atom   0O    basis set group =>   1
Atom   1H    basis set group =>   2
Atom   2H    basis set group =>   2
Atom   3O    basis set group =>   1
Atom   4H    basis set group =>   2
Atom   5H    basis set group =>   2
Atom   6O    basis set group =>   1
Atom   7H    basis set group =>   2
Atom   8H    basis set group =>   2
Atom   9O    basis set group =>   1
Atom  10H    basis set group =>   2
Atom  11H    basis set group =>   2
Atom  12O    basis set group =>   1
Atom  13H    basis set group =>   2
Atom  14H    basis set group =>   2
Atom  15O    basis set group =>   1
Atom  16H    basis set group =>   2
Atom  17H    basis set group =>   2
----------------------------------
AUXILIARY/JK BASIS SET INFORMATION
----------------------------------
There are 2 groups of distinct atoms

 Group   1 Type O   : 14s10p6d2f1g contracted to 10s8p4d2f1g pattern {5111111111/31111111/3111/11/1}
 Group   2 Type H   : 4s2p2d contracted to 2s2p2d pattern {31/11/11}

Atom   0O    basis set group =>   1
Atom   1H    basis set group =>   2
Atom   2H    basis set group =>   2
Atom   3O    basis set group =>   1
Atom   4H    basis set group =>   2
Atom   5H    basis set group =>   2
Atom   6O    basis set group =>   1
Atom   7H    basis set group =>   2
Atom   8H    basis set group =>   2
Atom   9O    basis set group =>   1
Atom  10H    basis set group =>   2
Atom  11H    basis set group =>   2
Atom  12O    basis set group =>   1
Atom  13H    basis set group =>   2
Atom  14H    basis set group =>   2
Atom  15O    basis set group =>   1
Atom  16H    basis set group =>   2
Atom  17H    basis set group =>   2


           ************************************************************
           *        Program running with 24 parallel MPI-processes    *
           *              working on a common directory               *
           ************************************************************
------------------------------------------------------------------------------
                           ORCA GTO INTEGRAL CALCULATION
                           -- RI-GTO INTEGRALS CHOSEN --
------------------------------------------------------------------------------

                         BASIS SET STATISTICS AND STARTUP INFO

Gaussian basis set:
 # of primitive gaussian shells          ...  312
 # of primitive gaussian functions       ...  696
 # of contracted shells                  ...  192
 # of contracted basis functions         ...  552
 Highest angular momentum                ...    3
 Maximum contraction depth               ...    8
Auxiliary gaussian basis set:
 # of primitive gaussian shells          ...  294
 # of primitive gaussian functions       ...  822
 # of contracted shells                  ...  222
 # of contracted aux-basis functions     ...  678
 Highest angular momentum                ...    4
 Maximum contraction depth               ...    5
Ratio of auxiliary to basis functions    ...  1.23
Integral package used                  ... LIBINT
 One Electron integrals                  ... done
 Ordering auxiliary basis shells         ... done
 Integral threshhold             Thresh  ...  2.500e-11
 Primitive cut-off               TCut    ...  2.500e-12
 Pre-screening matrix                    ... done
 Shell pair data                         ... 
 Ordering of the shell pairs             ... done (   0.003 sec) 16451 of 18528 pairs
 Determination of significant pairs      ... done (   0.000 sec)
 Creation of shell pair data             ... done (   0.002 sec)
 Storage of shell pair data              ... done (   0.009 sec)
 Shell pair data done in (   0.013 sec)
 Computing two index integrals           ... done
 Cholesky decomposition of the V-matrix  ... done


Timings:
 Total evaluation time                   ...   0.456 sec (  0.008 min)
 One electron matrix time                ...   0.110 sec (  0.002 min) = 24.1%
 Schwartz matrix evaluation time         ...   0.208 sec (  0.003 min) = 45.7%
 Two index repulsion integral time       ...   0.009 sec (  0.000 min) =  1.9%
 Cholesky decomposition of V             ...   0.088 sec (  0.001 min) = 19.4%
 Three index repulsion integral time     ...   0.000 sec (  0.000 min) =  0.0%



           ************************************************************
           *        Program running with 24 parallel MPI-processes    *
           *              working on a common directory               *
           ************************************************************
-------------------------------------------------------------------------------
                                 ORCA SCF
-------------------------------------------------------------------------------

------------
SCF SETTINGS
------------
Hamiltonian:
 Density Functional     Method          .... DFT(GTOs)
 Exchange Functional    Exchange        .... B88
   X-Alpha parameter    XAlpha          ....  0.666667
   Becke's b parameter  XBeta           ....  0.004200
 Correlation Functional Correlation     .... LYP
 LDA part of GGA corr.  LDAOpt          .... VWN-5
 Gradients option       PostSCFGGA      .... off
 Hybrid DFT is turned on
   Fraction HF Exchange ScalHFX         ....  0.710000
   Scaling of DF-GGA-X  ScalDFX         ....  0.290000
   Scaling of DF-GGA-C  ScalDFC         ....  0.540000
   Scaling of DF-LDA-C  ScalLDAC        ....  0.540000
   Perturbative correction              ....  1.000000
   Density functional embedding theory  .... OFF
 RI-approximation to the Coulomb term is turned on
   Number of auxiliary basis functions  .... 678
   RI-JK (J+K treated both via RI)      .... on


General Settings:
 Integral files         IntName         .... 06_H2O_6_ring
 Hartree-Fock type      HFTyp           .... RHF
 Total Charge           Charge          ....    0
 Multiplicity           Mult            ....    1
 Number of Electrons    NEL             ....   60
 Basis Dimension        Dim             ....  552
 Nuclear Repulsion      ENuc            ....    268.3173414251 Eh

Convergence Acceleration:
 DIIS                   CNVDIIS         .... on
   Start iteration      DIISMaxIt       ....    12
   Startup error        DIISStart       ....  0.200000
   # of expansion vecs  DIISMaxEq       ....     5
   Bias factor          DIISBfac        ....   1.050
   Max. coefficient     DIISMaxC        ....  10.000
 Newton-Raphson         CNVNR           .... off
 SOSCF                  CNVSOSCF        .... on
   Start iteration      SOSCFMaxIt      ....   150
   Startup grad/error   SOSCFStart      ....  0.003300
 Level Shifting         CNVShift        .... on
   Level shift para.    LevelShift      ....    0.2500
   Turn off err/grad.   ShiftErr        ....    0.0010
 Zerner damping         CNVZerner       .... off
 Static damping         CNVDamp         .... on
   Fraction old density DampFac         ....    0.7000
   Max. Damping (<1)    DampMax         ....    0.9800
   Min. Damping (>=0)   DampMin         ....    0.0000
   Turn off err/grad.   DampErr         ....    0.1000
 Fernandez-Rico         CNVRico         .... off

SCF Procedure:
 Maximum # iterations   MaxIter         ....   125
 SCF integral mode      SCFMode         .... Direct
   Integral package                     .... LIBINT
 Reset frequency        DirectResetFreq ....    20
 Integral Threshold     Thresh          ....  2.500e-11 Eh
 Primitive CutOff       TCut            ....  2.500e-12 Eh

Convergence Tolerance:
 Convergence Check Mode ConvCheckMode   .... Total+1el-Energy
 Convergence forced     ConvForced      .... 0
 Energy Change          TolE            ....  1.000e-08 Eh
 1-El. energy change                    ....  1.000e-05 Eh
 Orbital Gradient       TolG            ....  1.000e-05
 Orbital Rotation angle TolX            ....  1.000e-05
 DIIS Error             TolErr          ....  5.000e-07


Diagonalization of the overlap matrix:
Smallest eigenvalue                        ... 1.234e-04
Time for diagonalization                   ...    0.054 sec
Threshold for overlap eigenvalues          ... 1.000e-08
Number of eigenvalues below threshold      ... 0
Time for construction of square roots      ...    0.045 sec
Total time needed                          ...    0.100 sec

-------------------
DFT GRID GENERATION
-------------------

General Integration Accuracy     IntAcc      ...  4.670
Radial Grid Type                 RadialGrid  ... Gauss-Chebyshev
Angular Grid (max. acc.)         AngularGrid ... Lebedev-302
Angular grid pruning method      GridPruning ... 3 (G Style)
Weight generation scheme         WeightScheme... Becke
Basis function cutoff            BFCut       ...    1.0000e-11
Integration weight cutoff        WCut        ...    1.0000e-14
Grids for H and He will be reduced by one unit

# of grid points (after initial pruning)     ...  78000 (   0.0 sec)
# of grid points (after weights+screening)   ...  72996 (   0.0 sec)
nearest neighbour list constructed           ...    0.0 sec
Grid point re-assignment to atoms done       ...    0.0 sec
Grid point division into batches done        ...    0.2 sec
Reduced shell lists constructed in    0.3 sec

Total number of grid points                  ...    72996
Total number of batches                      ...     1152
Average number of points per batch           ...       63
Average number of grid points per atom       ...     4055
Average number of shells per batch           ...   118.88 (61.92%)
Average number of basis functions per batch  ...   321.94 (58.32%)
Average number of large shells per batch     ...    92.53 (77.84%)
Average number of large basis fcns per batch ...   241.84 (75.12%)
Average number of aux-shells per batch       ...   118.88 (53.55%)
Average number of aux functions per batch    ...   321.94 (47.48%)
Maximum spatial batch extension              ...   8.81, 11.76,  8.41 au
Average spatial batch extension              ...   0.07,  0.08,  0.06 au

Time for grid setup =    0.364 sec

------------------------------
INITIAL GUESS: MODEL POTENTIAL
------------------------------
Loading Hartree-Fock densities                     ... done
Calculating cut-offs                               ... done
Setting up the integral package                    ... done
Initializing the effective Hamiltonian             ... done
Starting the Coulomb interaction                   ... done (   0.0 sec)
Reading the grid                                   ... done
Mapping shells                                     ... done
Starting the XC term evaluation                    ... done (   0.1 sec)
  promolecular density results
     # of electrons  =     59.994135459
     EX              =    -52.751420143
     EC              =     -0.243502048
     EX+EC           =    -52.994922191
Transforming the Hamiltonian                       ... done (   0.0 sec)
Diagonalizing the Hamiltonian                      ... done (   0.0 sec)
Back transforming the eigenvectors                 ... done (   0.0 sec)
Now organizing SCF variables                       ... done
                      ------------------
                      INITIAL GUESS DONE (   0.7 sec)
                      ------------------
--------------
SCF ITERATIONS
--------------
ITER       Energy         Delta-E        Max-DP      RMS-DP      [F,P]     Damp
  0   -457.1266565579   0.000000000000 0.03503808  0.00049891  0.3449690 0.7000
  1   -456.6732453246   0.453411233284 0.03279300  0.00052058  0.2823570 0.7000
                               ***Turning on DIIS***
  2   -456.7973840025  -0.124138677827 0.01419720  0.00027347  0.1322388 0.7000
  3   -457.1432988593  -0.345914856819 0.02187740  0.00023130  0.0412293 0.0000
  4   -457.5699619638  -0.426663104564 0.00833760  0.00016025  0.0674623 0.0000
  5   -457.5876397982  -0.017677834364 0.00653567  0.00010597  0.0355083 0.0000
  6   -457.5930957219  -0.005455923647 0.00372719  0.00006001  0.0158247 0.0000
  7   -457.5943440915  -0.001248369613 0.00120333  0.00002135  0.0047619 0.0000
                      *** Initiating the SOSCF procedure ***
                           *** Shutting down DIIS ***
                      *** Re-Reading the Fockian *** 
                      *** Removing any level shift *** 
ITER      Energy       Delta-E        Grad      Rot      Max-DP    RMS-DP
  8   -457.59447558  -0.0001314912  0.000282  0.000282  0.000329  0.000007
  9   -457.59448230  -0.0000067210  0.000040  0.000071  0.000069  0.000001
 10   -457.59448244  -0.0000001338  0.000014  0.000039  0.000029  0.000001
 11   -457.59448245  -0.0000000120  0.000007  0.000008  0.000005  0.000000
                  ***Gradient check signals convergence***
              ***Rediagonalizing the Fockian in SOSCF/NRSCF***

               *****************************************************
               *                     SUCCESS                       *
               *           SCF CONVERGED AFTER  12 CYCLES          *
               *****************************************************


----------------
TOTAL SCF ENERGY
----------------

Total Energy       :         -457.59448245 Eh          -12451.77890 eV

Components:
Nuclear Repulsion  :          268.31734143 Eh            7301.28605 eV
Electronic Energy  :         -725.91182388 Eh          -19753.06495 eV
One Electron Energy:        -1165.20186661 Eh          -31706.75473 eV
Two Electron Energy:          439.29004273 Eh           11953.68978 eV

Virial components:
Potential Energy   :         -913.70586487 Eh          -24863.20060 eV
Kinetic Energy     :          456.11138242 Eh           12411.42170 eV
Virial Ratio       :            2.00325162


DFT components:
N(Alpha)           :       30.000000381234 electrons
N(Beta)            :       30.000000381234 electrons
N(Total)           :       60.000000762468 electrons
E(X)               :      -15.638041417812 Eh       
E(C)               :       -1.121479511181 Eh       
E(XC)              :      -16.759520928994 Eh       
DFET-embed. en.    :        0.000000000000 Eh       

---------------
SCF CONVERGENCE
---------------

  Last Energy change         ...   -3.1937e-09  Tolerance :   1.0000e-08
  Last MAX-Density change    ...    7.0862e-06  Tolerance :   1.0000e-07
  Last RMS-Density change    ...    9.6887e-08  Tolerance :   5.0000e-09
  Last Orbital Gradient      ...    9.7608e-07  Tolerance :   1.0000e-05
  Last Orbital Rotation      ...    1.4208e-06  Tolerance :   1.0000e-05

             **** THE GBW FILE WAS UPDATED (06_H2O_6_ring.gbw) ****
             **** DENSITY FILE WAS UPDATED (06_H2O_6_ring.scfp) ****
             **** ENERGY FILE WAS UPDATED (06_H2O_6_ring.en.tmp) ****
             **** THE GBW FILE WAS UPDATED (06_H2O_6_ring.gbw) ****
             **** DENSITY FILE WAS UPDATED (06_H2O_6_ring.scfp) ****
----------------
ORBITAL ENERGIES
----------------

  NO   OCC          E(Eh)            E(eV) 
   0   2.0000     -20.044013      -545.4253 
   1   2.0000     -20.044009      -545.4252 
   2   2.0000     -20.044008      -545.4252 
   3   2.0000     -20.044001      -545.4250 
   4   2.0000     -20.044000      -545.4250 
   5   2.0000     -20.043996      -545.4249 
   6   2.0000      -1.240284       -33.7498 
   7   2.0000      -1.233286       -33.5594 
   8   2.0000      -1.233285       -33.5594 
   9   2.0000      -1.218617       -33.1602 
  10   2.0000      -1.218616       -33.1602 
  11   2.0000      -1.210873       -32.9495 
  12   2.0000      -0.655582       -17.8393 
  13   2.0000      -0.653464       -17.7817 
  14   2.0000      -0.653464       -17.7816 
  15   2.0000      -0.653264       -17.7762 
  16   2.0000      -0.652398       -17.7527 
  17   2.0000      -0.652397       -17.7526 
  18   2.0000      -0.562056       -15.2943 
  19   2.0000      -0.541504       -14.7351 
  20   2.0000      -0.541504       -14.7351 
  21   2.0000      -0.496526       -13.5112 
  22   2.0000      -0.496525       -13.5111 
  23   2.0000      -0.474292       -12.9061 
  24   2.0000      -0.439691       -11.9646 
  25   2.0000      -0.439691       -11.9646 
  26   2.0000      -0.439398       -11.9566 
  27   2.0000      -0.439397       -11.9566 
  28   2.0000      -0.438313       -11.9271 
  29   2.0000      -0.436888       -11.8883 
  30   0.0000       0.011551         0.3143 
  31   0.0000       0.026022         0.7081 
  32   0.0000       0.026026         0.7082 
  33   0.0000       0.034591         0.9413 
  34   0.0000       0.041644         1.1332 
  35   0.0000       0.041650         1.1334 
  36   0.0000       0.062069         1.6890 
  37   0.0000       0.062076         1.6892 
  38   0.0000       0.070127         1.9082 
  39   0.0000       0.073352         1.9960 
  40   0.0000       0.085011         2.3133 
  41   0.0000       0.085017         2.3134 
  42   0.0000       0.113955         3.1009 
  43   0.0000       0.131426         3.5763 
  44   0.0000       0.131435         3.5765 
  45   0.0000       0.131943         3.5904 
  46   0.0000       0.146368         3.9829 
  47   0.0000       0.146794         3.9945 
  48   0.0000       0.146826         3.9953 
  49   0.0000       0.153191         4.1685 
  50   0.0000       0.162640         4.4257 
  51   0.0000       0.162705         4.4274 
  52   0.0000       0.171961         4.6793 
  53   0.0000       0.172015         4.6808 
  54   0.0000       0.187870         5.1122 
  55   0.0000       0.190723         5.1898 
  56   0.0000       0.192310         5.2330 
  57   0.0000       0.192360         5.2344 
  58   0.0000       0.215552         5.8655 
  59   0.0000       0.217558         5.9200 
  60   0.0000       0.217607         5.9214 
  61   0.0000       0.222310         6.0494 
  62   0.0000       0.222342         6.0502 
  63   0.0000       0.229133         6.2350 
  64   0.0000       0.237929         6.4744 
  65   0.0000       0.237936         6.4746 
  66   0.0000       0.251666         6.8482 
  67   0.0000       0.259594         7.0639 
  68   0.0000       0.259627         7.0648 
  69   0.0000       0.268514         7.3066 
  70   0.0000       0.269282         7.3275 
  71   0.0000       0.269303         7.3281 
  72   0.0000       0.290607         7.9078 
  73   0.0000       0.307541         8.3686 
  74   0.0000       0.332511         9.0481 
  75   0.0000       0.332521         9.0484 
  76   0.0000       0.340180         9.2568 
  77   0.0000       0.352026         9.5791 
  78   0.0000       0.352043         9.5796 
  79   0.0000       0.355678         9.6785 
  80   0.0000       0.357004         9.7146 
  81   0.0000       0.357055         9.7160 
  82   0.0000       0.361663         9.8413 
  83   0.0000       0.385121        10.4797 
  84   0.0000       0.385133        10.4800 
  85   0.0000       0.388307        10.5664 
  86   0.0000       0.388388        10.5686 
  87   0.0000       0.393501        10.7077 
  88   0.0000       0.393545        10.7089 
  89   0.0000       0.401261        10.9189 
  90   0.0000       0.404292        11.0013 
  91   0.0000       0.404359        11.0032 
  92   0.0000       0.417092        11.3497 
  93   0.0000       0.418576        11.3900 
  94   0.0000       0.419063        11.4033 
  95   0.0000       0.419115        11.4047 
  96   0.0000       0.430764        11.7217 
  97   0.0000       0.434467        11.8225 
  98   0.0000       0.445431        12.1208 
  99   0.0000       0.445478        12.1221 
 100   0.0000       0.452088        12.3019 
 101   0.0000       0.452119        12.3028 
 102   0.0000       0.461523        12.5587 
 103   0.0000       0.461565        12.5598 
 104   0.0000       0.471971        12.8430 
 105   0.0000       0.472017        12.8442 
 106   0.0000       0.474093        12.9007 
 107   0.0000       0.474780        12.9194 
 108   0.0000       0.544216        14.8089 
 109   0.0000       0.544318        14.8116 
 110   0.0000       0.556443        15.1416 
 111   0.0000       0.556520        15.1437 
 112   0.0000       0.557437        15.1686 
 113   0.0000       0.558201        15.1894 
 114   0.0000       0.575087        15.6489 
 115   0.0000       0.618117        16.8198 
 116   0.0000       0.626994        17.0614 
 117   0.0000       0.627037        17.0625 
 118   0.0000       0.640372        17.4254 
 119   0.0000       0.640403        17.4263 
 120   0.0000       0.665837        18.1183 
 121   0.0000       0.674317        18.3491 
 122   0.0000       0.675744        18.3879 
 123   0.0000       0.675775        18.3888 
 124   0.0000       0.711927        19.3725 
 125   0.0000       0.712076        19.3766 
 126   0.0000       0.714176        19.4337 
 127   0.0000       0.727714        19.8021 
 128   0.0000       0.727744        19.8029 
 129   0.0000       0.738069        20.0839 
 130   0.0000       0.761349        20.7174 
 131   0.0000       0.761453        20.7202 
 132   0.0000       0.772677        21.0256 
 133   0.0000       0.773972        21.0609 
 134   0.0000       0.774015        21.0620 
 135   0.0000       0.776720        21.1356 
 136   0.0000       0.776792        21.1376 
 137   0.0000       0.788788        21.4640 
 138   0.0000       0.803338        21.8600 
 139   0.0000       0.824325        22.4310 
 140   0.0000       0.824371        22.4323 
 141   0.0000       0.841281        22.8924 
 142   0.0000       0.847207        23.0537 
 143   0.0000       0.847268        23.0553 
 144   0.0000       0.862518        23.4703 
 145   0.0000       0.862671        23.4745 
 146   0.0000       0.862761        23.4769 
 147   0.0000       0.882083        24.0027 
 148   0.0000       0.882149        24.0045 
 149   0.0000       0.901022        24.5181 
 150   0.0000       0.902288        24.5525 
 151   0.0000       0.902316        24.5533 
 152   0.0000       0.917961        24.9790 
 153   0.0000       0.926921        25.2228 
 154   0.0000       0.926981        25.2244 
 155   0.0000       0.931671        25.3521 
 156   0.0000       0.944660        25.7055 
 157   0.0000       0.944678        25.7060 
 158   0.0000       0.945246        25.7215 
 159   0.0000       0.955909        26.0116 
 160   0.0000       0.955938        26.0124 
 161   0.0000       0.974924        26.5290 
 162   0.0000       0.978652        26.6305 
 163   0.0000       0.983140        26.7526 
 164   0.0000       0.983167        26.7533 
 165   0.0000       0.985472        26.8161 
 166   0.0000       0.985523        26.8174 
 167   0.0000       1.000932        27.2367 
 168   0.0000       1.000981        27.2381 
 169   0.0000       1.004279        27.3278 
 170   0.0000       1.005250        27.3543 
 171   0.0000       1.014923        27.6174 
 172   0.0000       1.014930        27.6177 
 173   0.0000       1.023577        27.8530 
 174   0.0000       1.023645        27.8548 
 175   0.0000       1.027111        27.9491 
 176   0.0000       1.040228        28.3060 
 177   0.0000       1.076268        29.2867 
 178   0.0000       1.076322        29.2882 
 179   0.0000       1.078910        29.3586 
 180   0.0000       1.084695        29.5161 
 181   0.0000       1.103946        30.0399 
 182   0.0000       1.126111        30.6430 
 183   0.0000       1.126133        30.6436 
 184   0.0000       1.138715        30.9860 
 185   0.0000       1.138753        30.9870 
 186   0.0000       1.148161        31.2430 
 187   0.0000       1.161986        31.6192 
 188   0.0000       1.166378        31.7387 
 189   0.0000       1.190805        32.4034 
 190   0.0000       1.190885        32.4056 
 191   0.0000       1.196626        32.5619 
 192   0.0000       1.196663        32.5628 
 193   0.0000       1.203255        32.7422 
 194   0.0000       1.213656        33.0253 
 195   0.0000       1.213684        33.0260 
 196   0.0000       1.221941        33.2507 
 197   0.0000       1.221989        33.2520 
 198   0.0000       1.227589        33.4044 
 199   0.0000       1.241456        33.7817 
 200   0.0000       1.265473        34.4353 
 201   0.0000       1.265583        34.4383 
 202   0.0000       1.280551        34.8456 
 203   0.0000       1.280621        34.8475 
 204   0.0000       1.327306        36.1178 
 205   0.0000       1.329299        36.1721 
 206   0.0000       1.329346        36.1733 
 207   0.0000       1.331976        36.2449 
 208   0.0000       1.355527        36.8858 
 209   0.0000       1.376163        37.4473 
 210   0.0000       1.376216        37.4488 
 211   0.0000       1.382359        37.6159 
 212   0.0000       1.382384        37.6166 
 213   0.0000       1.383313        37.6418 
 214   0.0000       1.429678        38.9035 
 215   0.0000       1.429728        38.9049 
 216   0.0000       1.431648        38.9571 
 217   0.0000       1.440304        39.1927 
 218   0.0000       1.440338        39.1936 
 219   0.0000       1.478285        40.2262 
 220   0.0000       1.478321        40.2272 
 221   0.0000       1.484461        40.3942 
 222   0.0000       1.498010        40.7629 
 223   0.0000       1.498795        40.7843 
 224   0.0000       1.498817        40.7849 
 225   0.0000       1.519987        41.3610 
 226   0.0000       1.530822        41.6558 
 227   0.0000       1.530861        41.6568 
 228   0.0000       1.537512        41.8378 
 229   0.0000       1.563444        42.5435 
 230   0.0000       1.569944        42.7204 
 231   0.0000       1.569987        42.7215 
 232   0.0000       1.584573        43.1184 
 233   0.0000       1.584617        43.1196 
 234   0.0000       1.665988        45.3338 
 235   0.0000       1.666012        45.3345 
 236   0.0000       1.679485        45.7011 
 237   0.0000       1.679556        45.7030 
 238   0.0000       1.682079        45.7717 
 239   0.0000       1.709374        46.5144 
 240   0.0000       1.736393        47.2496 
 241   0.0000       1.736426        47.2506 
 242   0.0000       1.737674        47.2845 
 243   0.0000       1.737752        47.2866 
 244   0.0000       1.753336        47.7107 
 245   0.0000       1.774360        48.2828 
 246   0.0000       1.793808        48.8120 
 247   0.0000       1.793888        48.8142 
 248   0.0000       1.797757        48.9194 
 249   0.0000       1.797777        48.9200 
 250   0.0000       1.812526        49.3213 
 251   0.0000       1.838567        50.0299 
 252   0.0000       1.849357        50.3235 
 253   0.0000       1.849380        50.3242 
 254   0.0000       1.893046        51.5124 
 255   0.0000       1.898705        51.6664 
 256   0.0000       1.898735        51.6672 
 257   0.0000       1.908317        51.9280 
 258   0.0000       1.951463        53.1020 
 259   0.0000       1.973305        53.6964 
 260   0.0000       1.973331        53.6971 
 261   0.0000       1.981871        53.9294 
 262   0.0000       1.981929        53.9310 
 263   0.0000       1.995587        54.3027 
 264   0.0000       2.061449        56.0949 
 265   0.0000       2.061459        56.0951 
 266   0.0000       2.099038        57.1177 
 267   0.0000       2.101149        57.1752 
 268   0.0000       2.101156        57.1754 
 269   0.0000       2.157205        58.7005 
 270   0.0000       2.225248        60.5521 
 271   0.0000       2.268500        61.7290 
 272   0.0000       2.268504        61.7291 
 273   0.0000       2.280615        62.0587 
 274   0.0000       2.280643        62.0594 
 275   0.0000       2.297623        62.5215 
 276   0.0000       2.348326        63.9012 
 277   0.0000       2.348343        63.9016 
 278   0.0000       2.352367        64.0111 
 279   0.0000       2.365222        64.3610 
 280   0.0000       2.385108        64.9021 
 281   0.0000       2.399744        65.3004 
 282   0.0000       2.412249        65.6406 
 283   0.0000       2.412288        65.6417 
 284   0.0000       2.415057        65.7170 
 285   0.0000       2.415071        65.7174 
 286   0.0000       2.422844        65.9289 
 287   0.0000       2.453217        66.7554 
 288   0.0000       2.453237        66.7560 
 289   0.0000       2.469520        67.1990 
 290   0.0000       2.494670        67.8834 
 291   0.0000       2.494686        67.8839 
 292   0.0000       2.496978        67.9462 
 293   0.0000       2.497022        67.9474 
 294   0.0000       2.517913        68.5159 
 295   0.0000       2.522636        68.6444 
 296   0.0000       2.522678        68.6456 
 297   0.0000       2.529974        68.8441 
 298   0.0000       2.557982        69.6062 
 299   0.0000       2.580532        70.2198 
 300   0.0000       2.582174        70.2645 
 301   0.0000       2.582218        70.2657 
 302   0.0000       2.591575        70.5203 
 303   0.0000       2.591620        70.5216 
 304   0.0000       2.616431        71.1967 
 305   0.0000       2.616479        71.1980 
 306   0.0000       2.626594        71.4732 
 307   0.0000       2.661829        72.4320 
 308   0.0000       2.661851        72.4327 
 309   0.0000       2.697602        73.4055 
 310   0.0000       2.704996        73.6067 
 311   0.0000       2.705032        73.6077 
 312   0.0000       2.705460        73.6193 
 313   0.0000       2.722420        74.0808 
 314   0.0000       2.722440        74.0813 
 315   0.0000       2.762614        75.1746 
 316   0.0000       2.772764        75.4507 
 317   0.0000       2.778390        75.6038 
 318   0.0000       2.778417        75.6046 
 319   0.0000       2.785947        75.8095 
 320   0.0000       2.785996        75.8108 
 321   0.0000       2.823054        76.8192 
 322   0.0000       2.848459        77.5105 
 323   0.0000       2.848535        77.5126 
 324   0.0000       2.871620        78.1407 
 325   0.0000       2.873572        78.1939 
 326   0.0000       2.873606        78.1948 
 327   0.0000       2.933333        79.8201 
 328   0.0000       2.933364        79.8209 
 329   0.0000       2.938988        79.9739 
 330   0.0000       2.939011        79.9746 
 331   0.0000       2.941761        80.0494 
 332   0.0000       2.969459        80.8031 
 333   0.0000       3.016462        82.0821 
 334   0.0000       3.016469        82.0823 
 335   0.0000       3.029828        82.4458 
 336   0.0000       3.044482        82.8446 
 337   0.0000       3.048873        82.9641 
 338   0.0000       3.048902        82.9648 
 339   0.0000       3.066392        83.4408 
 340   0.0000       3.066414        83.4414 
 341   0.0000       3.071136        83.5698 
 342   0.0000       3.129212        85.1502 
 343   0.0000       3.129257        85.1514 
 344   0.0000       3.199253        87.0561 
 345   0.0000       3.199266        87.0564 
 346   0.0000       3.215617        87.5014 
 347   0.0000       3.258263        88.6618 
 348   0.0000       3.737933       101.7143 
 349   0.0000       3.737937       101.7144 
 350   0.0000       3.741549       101.8127 
 351   0.0000       3.745964       101.9329 
 352   0.0000       3.759321       102.2963 
 353   0.0000       3.759325       102.2964 
 354   0.0000       4.022584       109.4601 
 355   0.0000       4.022593       109.4603 
 356   0.0000       4.030437       109.6738 
 357   0.0000       4.030462       109.6745 
 358   0.0000       4.034699       109.7897 
 359   0.0000       4.050797       110.2278 
 360   0.0000       4.062482       110.5458 
 361   0.0000       4.064403       110.5980 
 362   0.0000       4.064412       110.5983 
 363   0.0000       4.078192       110.9732 
 364   0.0000       4.110226       111.8449 
 365   0.0000       4.110240       111.8453 
 366   0.0000       4.131659       112.4282 
 367   0.0000       4.147143       112.8495 
 368   0.0000       4.147151       112.8497 
 369   0.0000       4.158902       113.1695 
 370   0.0000       4.166313       113.3711 
 371   0.0000       4.166331       113.3716 
 372   0.0000       4.197210       114.2119 
 373   0.0000       4.197231       114.2125 
 374   0.0000       4.207010       114.4786 
 375   0.0000       4.209802       114.5545 
 376   0.0000       4.209814       114.5549 
 377   0.0000       4.222955       114.9124 
 378   0.0000       4.252441       115.7148 
 379   0.0000       4.294718       116.8652 
 380   0.0000       4.294727       116.8655 
 381   0.0000       4.297081       116.9295 
 382   0.0000       4.297105       116.9302 
 383   0.0000       4.374784       119.0439 
 384   0.0000       4.374796       119.0442 
 385   0.0000       4.377582       119.1201 
 386   0.0000       4.378065       119.1332 
 387   0.0000       4.399494       119.7163 
 388   0.0000       4.426141       120.4414 
 389   0.0000       4.426157       120.4419 
 390   0.0000       4.444486       120.9406 
 391   0.0000       4.461813       121.4121 
 392   0.0000       4.471739       121.6822 
 393   0.0000       4.471772       121.6831 
 394   0.0000       4.480912       121.9318 
 395   0.0000       4.480919       121.9320 
 396   0.0000       4.540541       123.5544 
 397   0.0000       4.540559       123.5549 
 398   0.0000       4.551180       123.8439 
 399   0.0000       4.551192       123.8442 
 400   0.0000       4.554230       123.9269 
 401   0.0000       4.558944       124.0552 
 402   0.0000       4.590158       124.9045 
 403   0.0000       4.590164       124.9047 
 404   0.0000       4.594683       125.0277 
 405   0.0000       4.601318       125.2082 
 406   0.0000       4.604788       125.3026 
 407   0.0000       4.604805       125.3031 
 408   0.0000       4.619362       125.6992 
 409   0.0000       4.619373       125.6995 
 410   0.0000       4.636456       126.1644 
 411   0.0000       4.674221       127.1920 
 412   0.0000       4.674260       127.1931 
 413   0.0000       4.707753       128.1045 
 414   0.0000       4.769190       129.7763 
 415   0.0000       4.781375       130.1078 
 416   0.0000       4.781389       130.1082 
 417   0.0000       4.783201       130.1575 
 418   0.0000       4.783216       130.1579 
 419   0.0000       4.855030       132.1121 
 420   0.0000       4.946316       134.5961 
 421   0.0000       4.952508       134.7646 
 422   0.0000       4.952515       134.7648 
 423   0.0000       4.956750       134.8800 
 424   0.0000       4.999747       136.0500 
 425   0.0000       4.999763       136.0505 
 426   0.0000       5.058485       137.6484 
 427   0.0000       5.089681       138.4973 
 428   0.0000       5.089691       138.4975 
 429   0.0000       5.100848       138.8011 
 430   0.0000       5.100857       138.8014 
 431   0.0000       5.105566       138.9295 
 432   0.0000       5.110608       139.0667 
 433   0.0000       5.169684       140.6742 
 434   0.0000       5.169709       140.6749 
 435   0.0000       5.170526       140.6972 
 436   0.0000       5.250373       142.8699 
 437   0.0000       5.250393       142.8705 
 438   0.0000       5.278121       143.6250 
 439   0.0000       5.278129       143.6252 
 440   0.0000       5.281023       143.7039 
 441   0.0000       5.289183       143.9260 
 442   0.0000       5.300543       144.2351 
 443   0.0000       5.300560       144.2356 
 444   0.0000       5.333506       145.1321 
 445   0.0000       5.372942       146.2052 
 446   0.0000       5.372952       146.2054 
 447   0.0000       5.434965       147.8929 
 448   0.0000       5.434969       147.8930 
 449   0.0000       5.465122       148.7135 
 450   0.0000       5.590916       152.1366 
 451   0.0000       5.598761       152.3500 
 452   0.0000       5.598771       152.3503 
 453   0.0000       5.618233       152.8799 
 454   0.0000       5.618242       152.8801 
 455   0.0000       5.628994       153.1727 
 456   0.0000       5.791532       157.5956 
 457   0.0000       5.791563       157.5964 
 458   0.0000       5.796753       157.7377 
 459   0.0000       5.796782       157.7385 
 460   0.0000       5.809184       158.0759 
 461   0.0000       5.822156       158.4289 
 462   0.0000       6.222656       169.3271 
 463   0.0000       6.273998       170.7242 
 464   0.0000       6.274019       170.7247 
 465   0.0000       6.300785       171.4531 
 466   0.0000       6.301495       171.4724 
 467   0.0000       6.301505       171.4727 
 468   0.0000       6.422640       174.7689 
 469   0.0000       6.424005       174.8061 
 470   0.0000       6.424029       174.8067 
 471   0.0000       6.426780       174.8816 
 472   0.0000       6.426805       174.8823 
 473   0.0000       6.439802       175.2359 
 474   0.0000       6.743472       183.4992 
 475   0.0000       6.756970       183.8665 
 476   0.0000       6.756997       183.8672 
 477   0.0000       6.795775       184.9224 
 478   0.0000       6.812653       185.3817 
 479   0.0000       6.812674       185.3823 
 480   0.0000       6.834997       185.9897 
 481   0.0000       6.835027       185.9905 
 482   0.0000       6.852623       186.4694 
 483   0.0000       6.928701       188.5395 
 484   0.0000       6.928710       188.5398 
 485   0.0000       6.987528       190.1403 
 486   0.0000       7.048188       191.7909 
 487   0.0000       7.082661       192.7290 
 488   0.0000       7.082800       192.7328 
 489   0.0000       7.082801       192.7328 
 490   0.0000       7.088316       192.8829 
 491   0.0000       7.088333       192.8833 
 492   0.0000       7.126081       193.9105 
 493   0.0000       7.166824       195.0192 
 494   0.0000       7.166828       195.0193 
 495   0.0000       7.179569       195.3660 
 496   0.0000       7.183266       195.4666 
 497   0.0000       7.189163       195.6271 
 498   0.0000       7.189171       195.6273 
 499   0.0000       7.208962       196.1658 
 500   0.0000       7.208979       196.1663 
 501   0.0000       7.271666       197.8721 
 502   0.0000       7.273711       197.9277 
 503   0.0000       7.273747       197.9287 
 504   0.0000       7.277423       198.0288 
 505   0.0000       7.312207       198.9753 
 506   0.0000       7.312221       198.9757 
 507   0.0000       7.350064       200.0054 
 508   0.0000       7.350070       200.0056 
 509   0.0000       7.353592       200.1014 
 510   0.0000       7.353603       200.1017 
 511   0.0000       7.361349       200.3125 
 512   0.0000       7.365846       200.4349 
 513   0.0000       7.383639       200.9190 
 514   0.0000       7.383654       200.9194 
 515   0.0000       7.469656       203.2597 
 516   0.0000       7.480462       203.5537 
 517   0.0000       7.480465       203.5538 
 518   0.0000       7.489920       203.8111 
 519   0.0000       7.528720       204.8669 
 520   0.0000       7.528730       204.8672 
 521   0.0000       7.534802       205.0324 
 522   0.0000       7.629003       207.5957 
 523   0.0000       7.679827       208.9787 
 524   0.0000       7.679838       208.9790 
 525   0.0000       7.710017       209.8002 
 526   0.0000       7.710021       209.8003 
 527   0.0000       7.718487       210.0307 
 528   0.0000       7.868936       214.1246 
 529   0.0000       7.871369       214.1908 
 530   0.0000       7.871378       214.1911 
 531   0.0000       7.878141       214.3751 
 532   0.0000       7.878164       214.3758 
 533   0.0000       7.892224       214.7583 
 534   0.0000       7.908279       215.1952 
 535   0.0000       7.925829       215.6728 
 536   0.0000       7.925846       215.6732 
 537   0.0000       8.017151       218.1578 
 538   0.0000       8.017163       218.1581 
 539   0.0000       8.083681       219.9681 
 540   0.0000       8.801396       239.4982 
 541   0.0000       8.801417       239.4987 
 542   0.0000       8.801772       239.5084 
 543   0.0000       8.844545       240.6723 
 544   0.0000       8.847344       240.7485 
 545   0.0000       8.847354       240.7487 
 546   0.0000      16.000243       435.3887 
 547   0.0000      16.465974       448.0619 
 548   0.0000      16.465994       448.0625 
 549   0.0000      17.345942       472.0071 
 550   0.0000      17.345957       472.0075 
 551   0.0000      17.810942       484.6604 

                    ********************************
                    * MULLIKEN POPULATION ANALYSIS *
                    ********************************

-----------------------
MULLIKEN ATOMIC CHARGES
-----------------------
   0 O :   -0.456520
   1 H :    0.166192
   2 H :    0.290362
   3 O :   -0.456491
   4 H :    0.290403
   5 H :    0.165987
   6 O :   -0.456491
   7 H :    0.165987
   8 H :    0.290403
   9 O :   -0.456520
  10 H :    0.290362
  11 H :    0.166191
  12 O :   -0.456611
  13 H :    0.166002
  14 H :    0.290677
  15 O :   -0.456613
  16 H :    0.166003
  17 H :    0.290678
Sum of atomic charges:   -0.0000000

--------------------------------
MULLIKEN REDUCED ORBITAL CHARGES
--------------------------------
  0 O s       :     3.876789  s :     3.876789
      pz      :     1.470848  p :     4.566160
      px      :     1.520455
      py      :     1.574858
      dz2     :     0.004014  d :     0.013326
      dxz     :     0.001733
      dyz     :     0.001973
      dx2y2   :     0.002841
      dxy     :     0.002764
      f0      :    -0.000019  f :     0.000245
      f+1     :     0.000040
      f-1     :     0.000204
      f+2     :     0.000021
      f-2     :     0.000113
      f+3     :     0.000030
      f-3     :    -0.000144
  1 H s       :     0.707002  s :     0.707002
      pz      :     0.025803  p :     0.108985
      px      :     0.036873
      py      :     0.046309
      dz2     :     0.006441  d :     0.017821
      dxz     :     0.004364
      dyz     :     0.001866
      dx2y2   :     0.001607
      dxy     :     0.003543
  2 H s       :     0.584970  s :     0.584970
      pz      :     0.033406  p :     0.073897
      px      :     0.011650
      py      :     0.028841
      dz2     :     0.003763  d :     0.050771
      dxz     :     0.012749
      dyz     :     0.004809
      dx2y2   :     0.018834
      dxy     :     0.010615
  3 O s       :     3.876737  s :     3.876737
      pz      :     1.470684  p :     4.566185
      px      :     1.443213
      py      :     1.652289
      dz2     :     0.004011  d :     0.013324
      dxz     :     0.000933
      dyz     :     0.002767
      dx2y2   :    -0.001432
      dxy     :     0.007044
      f0      :    -0.000019  f :     0.000245
      f+1     :     0.000041
      f-1     :     0.000202
      f+2     :     0.000067
      f-2     :     0.000067
      f+3     :     0.000030
      f-3     :    -0.000144
  4 H s       :     0.585002  s :     0.585002
      pz      :     0.033375  p :     0.073875
      px      :     0.001735
      py      :     0.038766
      dz2     :     0.003758  d :     0.050720
      dxz     :     0.012966
      dyz     :     0.004570
      dx2y2   :     0.018863
      dxy     :     0.010562
  5 H s       :     0.707137  s :     0.707137
      pz      :     0.025771  p :     0.109038
      px      :     0.038674
      py      :     0.044594
      dz2     :     0.006457  d :     0.017837
      dxz     :     0.002143
      dyz     :     0.004085
      dx2y2   :     0.002824
      dxy     :     0.002327
  6 O s       :     3.876736  s :     3.876736
      pz      :     1.470684  p :     4.566186
      px      :     1.443213
      py      :     1.652289
      dz2     :     0.004011  d :     0.013324
      dxz     :     0.000933
      dyz     :     0.002767
      dx2y2   :    -0.001432
      dxy     :     0.007044
      f0      :    -0.000019  f :     0.000245
      f+1     :     0.000041
      f-1     :     0.000202
      f+2     :     0.000067
      f-2     :     0.000067
      f+3     :     0.000030
      f-3     :    -0.000144
  7 H s       :     0.707138  s :     0.707138
      pz      :     0.025771  p :     0.109038
      px      :     0.038674
      py      :     0.044594
      dz2     :     0.006457  d :     0.017837
      dxz     :     0.002143
      dyz     :     0.004085
      dx2y2   :     0.002824
      dxy     :     0.002327
  8 H s       :     0.585002  s :     0.585002
      pz      :     0.033374  p :     0.073875
      px      :     0.001735
      py      :     0.038766
      dz2     :     0.003758  d :     0.050720
      dxz     :     0.012966
      dyz     :     0.004570
      dx2y2   :     0.018863
      dxy     :     0.010562
  9 O s       :     3.876786  s :     3.876786
      pz      :     1.470848  p :     4.566162
      px      :     1.520456
      py      :     1.574859
      dz2     :     0.004015  d :     0.013326
      dxz     :     0.001733
      dyz     :     0.001973
      dx2y2   :     0.002841
      dxy     :     0.002765
      f0      :    -0.000019  f :     0.000245
      f+1     :     0.000040
      f-1     :     0.000204
      f+2     :     0.000021
      f-2     :     0.000113
      f+3     :     0.000030
      f-3     :    -0.000144
 10 H s       :     0.584970  s :     0.584970
      pz      :     0.033405  p :     0.073896
      px      :     0.011650
      py      :     0.028841
      dz2     :     0.003763  d :     0.050771
      dxz     :     0.012749
      dyz     :     0.004809
      dx2y2   :     0.018835
      dxy     :     0.010615
 11 H s       :     0.707003  s :     0.707003
      pz      :     0.025803  p :     0.108985
      px      :     0.036873
      py      :     0.046309
      dz2     :     0.006441  d :     0.017821
      dxz     :     0.004364
      dyz     :     0.001866
      dx2y2   :     0.001607
      dxy     :     0.003543
 12 O s       :     3.876831  s :     3.876831
      pz      :     1.470725  p :     4.566178
      px      :     1.679606
      py      :     1.415848
      dz2     :     0.004022  d :     0.013355
      dxz     :     0.002892
      dyz     :     0.000819
      dx2y2   :     0.007012
      dxy     :    -0.001389
      f0      :    -0.000019  f :     0.000246
      f+1     :     0.000284
      f-1     :    -0.000040
      f+2     :     0.000113
      f-2     :     0.000021
      f+3     :     0.000030
      f-3     :    -0.000144
 13 H s       :     0.707044  s :     0.707044
      pz      :     0.025760  p :     0.109103
      px      :     0.049426
      py      :     0.033917
      dz2     :     0.006454  d :     0.017851
      dxz     :     0.002840
      dyz     :     0.003403
      dx2y2   :     0.003297
      dxy     :     0.001858
 14 H s       :     0.584914  s :     0.584914
      pz      :     0.033345  p :     0.073683
      px      :     0.047362
      py      :    -0.007025
      dz2     :     0.003758  d :     0.050726
      dxz     :     0.000606
      dyz     :     0.016945
      dx2y2   :     0.006471
      dxy     :     0.022947
 15 O s       :     3.876832  s :     3.876832
      pz      :     1.470726  p :     4.566180
      px      :     1.679606
      py      :     1.415848
      dz2     :     0.004022  d :     0.013355
      dxz     :     0.002892
      dyz     :     0.000819
      dx2y2   :     0.007012
      dxy     :    -0.001389
      f0      :    -0.000019  f :     0.000246
      f+1     :     0.000284
      f-1     :    -0.000040
      f+2     :     0.000113
      f-2     :     0.000021
      f+3     :     0.000030
      f-3     :    -0.000144
 16 H s       :     0.707043  s :     0.707043
      pz      :     0.025761  p :     0.109103
      px      :     0.049425
      py      :     0.033917
      dz2     :     0.006454  d :     0.017851
      dxz     :     0.002840
      dyz     :     0.003403
      dx2y2   :     0.003297
      dxy     :     0.001858
 17 H s       :     0.584914  s :     0.584914
      pz      :     0.033346  p :     0.073682
      px      :     0.047362
      py      :    -0.007025
      dz2     :     0.003758  d :     0.050726
      dxz     :     0.000606
      dyz     :     0.016945
      dx2y2   :     0.006471
      dxy     :     0.022947


                     *******************************
                     * LOEWDIN POPULATION ANALYSIS *
                     *******************************

----------------------
LOEWDIN ATOMIC CHARGES
----------------------
   0 O :    1.125197
   1 H :   -0.451002
   2 H :   -0.674193
   3 O :    1.125192
   4 H :   -0.674190
   5 H :   -0.451006
   6 O :    1.125192
   7 H :   -0.451007
   8 H :   -0.674189
   9 O :    1.125196
  10 H :   -0.674191
  11 H :   -0.451004
  12 O :    1.125194
  13 H :   -0.451009
  14 H :   -0.674183
  15 O :    1.125193
  16 H :   -0.451009
  17 H :   -0.674182

-------------------------------
LOEWDIN REDUCED ORBITAL CHARGES
-------------------------------
  0 O s       :     2.944818  s :     2.944818
      pz      :     1.262237  p :     3.811009
      px      :     1.268572
      py      :     1.280199
      dz2     :     0.023440  d :     0.100961
      dxz     :     0.005642
      dyz     :     0.023571
      dx2y2   :     0.015619
      dxy     :     0.032689
      f0      :     0.000813  f :     0.018015
      f+1     :     0.003024
      f-1     :     0.004987
      f+2     :     0.001832
      f-2     :     0.000890
      f+3     :     0.000703
      f-3     :     0.005766
  1 H s       :     0.578099  s :     0.578099
      pz      :     0.219437  p :     0.526062
      px      :     0.136438
      py      :     0.170187
      dz2     :     0.108470  d :     0.346840
      dxz     :     0.078398
      dyz     :     0.089629
      dx2y2   :     0.029932
      dxy     :     0.040412
  2 H s       :     0.538124  s :     0.538124
      pz      :     0.137787  p :     0.622886
      px      :     0.293326
      py      :     0.191773
      dz2     :     0.054481  d :     0.513184
      dxz     :     0.109244
      dyz     :     0.049974
      dx2y2   :     0.150819
      dxy     :     0.148666
  3 O s       :     2.944817  s :     2.944817
      pz      :     1.262235  p :     3.811012
      px      :     1.239988
      py      :     1.308790
      dz2     :     0.023440  d :     0.100963
      dxz     :     0.015717
      dyz     :     0.013496
      dx2y2   :     0.023839
      dxy     :     0.024471
      f0      :     0.000813  f :     0.018015
      f+1     :     0.003397
      f-1     :     0.004614
      f+2     :     0.000481
      f-2     :     0.002241
      f+3     :     0.000703
      f-3     :     0.005766
  4 H s       :     0.538124  s :     0.538124
      pz      :     0.137785  p :     0.622885
      px      :     0.295971
      py      :     0.189129
      dz2     :     0.054482  d :     0.513181
      dxz     :     0.125379
      dyz     :     0.033837
      dx2y2   :     0.146348
      dxy     :     0.153135
  5 H s       :     0.578101  s :     0.578101
      pz      :     0.219439  p :     0.526066
      px      :     0.148146
      py      :     0.158480
      dz2     :     0.108470  d :     0.346839
      dxz     :     0.085582
      dyz     :     0.082443
      dx2y2   :     0.039394
      dxy     :     0.030950
  6 O s       :     2.944818  s :     2.944818
      pz      :     1.262235  p :     3.811013
      px      :     1.239988
      py      :     1.308790
      dz2     :     0.023440  d :     0.100963
      dxz     :     0.015717
      dyz     :     0.013496
      dx2y2   :     0.023839
      dxy     :     0.024471
      f0      :     0.000813  f :     0.018015
      f+1     :     0.003397
      f-1     :     0.004614
      f+2     :     0.000481
      f-2     :     0.002241
      f+3     :     0.000703
      f-3     :     0.005766
  7 H s       :     0.578102  s :     0.578102
      pz      :     0.219440  p :     0.526066
      px      :     0.148146
      py      :     0.158480
      dz2     :     0.108470  d :     0.346839
      dxz     :     0.085582
      dyz     :     0.082443
      dx2y2   :     0.039394
      dxy     :     0.030950
  8 H s       :     0.538124  s :     0.538124
      pz      :     0.137784  p :     0.622884
      px      :     0.295971
      py      :     0.189129
      dz2     :     0.054482  d :     0.513181
      dxz     :     0.125379
      dyz     :     0.033837
      dx2y2   :     0.146348
      dxy     :     0.153135
  9 O s       :     2.944818  s :     2.944818
      pz      :     1.262238  p :     3.811010
      px      :     1.268572
      py      :     1.280199
      dz2     :     0.023440  d :     0.100961
      dxz     :     0.005642
      dyz     :     0.023571
      dx2y2   :     0.015619
      dxy     :     0.032689
      f0      :     0.000813  f :     0.018015
      f+1     :     0.003024
      f-1     :     0.004987
      f+2     :     0.001832
      f-2     :     0.000890
      f+3     :     0.000703
      f-3     :     0.005766
 10 H s       :     0.538123  s :     0.538123
      pz      :     0.137787  p :     0.622885
      px      :     0.293326
      py      :     0.191772
      dz2     :     0.054481  d :     0.513183
      dxz     :     0.109244
      dyz     :     0.049974
      dx2y2   :     0.150819
      dxy     :     0.148665
 11 H s       :     0.578100  s :     0.578100
      pz      :     0.219438  p :     0.526063
      px      :     0.136438
      py      :     0.170187
      dz2     :     0.108470  d :     0.346841
      dxz     :     0.078398
      dyz     :     0.089629
      dx2y2   :     0.029932
      dxy     :     0.040412
 12 O s       :     2.944818  s :     2.944818
      pz      :     1.262237  p :     3.811011
      px      :     1.314604
      py      :     1.234170
      dz2     :     0.023440  d :     0.100962
      dxz     :     0.022461
      dyz     :     0.006753
      dx2y2   :     0.033006
      dxy     :     0.015303
      f0      :     0.000813  f :     0.018015
      f+1     :     0.005595
      f-1     :     0.002416
      f+2     :     0.001770
      f-2     :     0.000952
      f+3     :     0.000703
      f-3     :     0.005766
 13 H s       :     0.578100  s :     0.578100
      pz      :     0.219438  p :     0.526069
      px      :     0.175358
      py      :     0.131272
      dz2     :     0.108470  d :     0.346840
      dxz     :     0.088059
      dyz     :     0.079967
      dx2y2   :     0.036190
      dxy     :     0.034153
 14 H s       :     0.538122  s :     0.538122
      pz      :     0.137784  p :     0.622880
      px      :     0.138353
      py      :     0.346743
      dz2     :     0.054482  d :     0.513180
      dxz     :     0.004204
      dyz     :     0.155012
      dx2y2   :     0.152060
      dxy     :     0.147423
 15 O s       :     2.944818  s :     2.944818
      pz      :     1.262237  p :     3.811012
      px      :     1.314604
      py      :     1.234171
      dz2     :     0.023440  d :     0.100962
      dxz     :     0.022461
      dyz     :     0.006752
      dx2y2   :     0.033006
      dxy     :     0.015303
      f0      :     0.000813  f :     0.018015
      f+1     :     0.005595
      f-1     :     0.002416
      f+2     :     0.001770
      f-2     :     0.000952
      f+3     :     0.000703
      f-3     :     0.005766
 16 H s       :     0.578100  s :     0.578100
      pz      :     0.219438  p :     0.526069
      px      :     0.175358
      py      :     0.131272
      dz2     :     0.108470  d :     0.346840
      dxz     :     0.088059
      dyz     :     0.079967
      dx2y2   :     0.036190
      dxy     :     0.034153
 17 H s       :     0.538122  s :     0.538122
      pz      :     0.137784  p :     0.622880
      px      :     0.138353
      py      :     0.346743
      dz2     :     0.054482  d :     0.513180
      dxz     :     0.004204
      dyz     :     0.155012
      dx2y2   :     0.152060
      dxy     :     0.147423


                      *****************************
                      * MAYER POPULATION ANALYSIS *
                      *****************************

  NA   - Mulliken gross atomic population
  ZA   - Total nuclear charge
  QA   - Mulliken gross atomic charge
  VA   - Mayer's total valence
  BVA  - Mayer's bonded valence
  FA   - Mayer's free valence

  ATOM       NA         ZA         QA         VA         BVA        FA
  0 O      8.4565     8.0000    -0.4565     1.8994     1.8994     0.0000
  1 H      0.8338     1.0000     0.1662     1.0922     1.0922     0.0000
  2 H      0.7096     1.0000     0.2904     0.9941     0.9941     0.0000
  3 O      8.4565     8.0000    -0.4565     1.8993     1.8993    -0.0000
  4 H      0.7096     1.0000     0.2904     0.9940     0.9940     0.0000
  5 H      0.8340     1.0000     0.1660     1.0924     1.0924    -0.0000
  6 O      8.4565     8.0000    -0.4565     1.8993     1.8993    -0.0000
  7 H      0.8340     1.0000     0.1660     1.0924     1.0924     0.0000
  8 H      0.7096     1.0000     0.2904     0.9940     0.9940    -0.0000
  9 O      8.4565     8.0000    -0.4565     1.8994     1.8994    -0.0000
 10 H      0.7096     1.0000     0.2904     0.9941     0.9941     0.0000
 11 H      0.8338     1.0000     0.1662     1.0922     1.0922    -0.0000
 12 O      8.4566     8.0000    -0.4566     1.8992     1.8992    -0.0000
 13 H      0.8340     1.0000     0.1660     1.0926     1.0926    -0.0000
 14 H      0.7093     1.0000     0.2907     0.9935     0.9935    -0.0000
 15 O      8.4566     8.0000    -0.4566     1.8992     1.8992     0.0000
 16 H      0.8340     1.0000     0.1660     1.0926     1.0926     0.0000
 17 H      0.7093     1.0000     0.2907     0.9935     0.9935    -0.0000

  Mayer bond orders larger than 0.100000
B(  0-O ,  1-H ) :   1.0540 B(  0-O ,  2-H ) :   0.8900 B(  3-O ,  4-H ) :   0.8898 
B(  3-O ,  5-H ) :   1.0541 B(  6-O ,  7-H ) :   1.0541 B(  6-O ,  8-H ) :   0.8898 
B(  9-O , 10-H ) :   0.8900 B(  9-O , 11-H ) :   1.0540 B( 12-O , 13-H ) :   1.0542 
B( 12-O , 14-H ) :   0.8895 B( 15-O , 16-H ) :   1.0542 B( 15-O , 17-H ) :   0.8895 


-------
TIMINGS
-------

Total SCF time: 0 days 0 hours 0 min 13 sec 

Total time                  ....      13.447 sec
Sum of individual times     ....      12.934 sec  ( 96.2%)

Fock matrix formation       ....      11.020 sec  ( 82.0%)
  XC integration            ....       2.242 sec  ( 20.3% of F)
    Basis function eval.    ....       0.350 sec  ( 15.6% of XC)
    Density eval.           ....       0.479 sec  ( 21.4% of XC)
    XC-Functional eval.     ....       0.036 sec  (  1.6% of XC)
    XC-Potential eval.      ....       0.706 sec  ( 31.5% of XC)
Diagonalization             ....       0.575 sec  (  4.3%)
Density matrix formation    ....       0.043 sec  (  0.3%)
Population analysis         ....       0.053 sec  (  0.4%)
Initial guess               ....       0.314 sec  (  2.3%)
Orbital Transformation      ....       0.000 sec  (  0.0%)
Orbital Orthonormalization  ....       0.000 sec  (  0.0%)
DIIS solution               ....       0.332 sec  (  2.5%)
SOSCF solution              ....       0.233 sec  (  1.7%)
Grid generation             ....       0.364 sec  (  2.7%)
[...]
      1       0.012355  -0.015671  -0.005271   0.015705   0.002757   0.011108
      2       0.001673  -0.002196  -0.000183   0.002093   0.000824   0.001672
      3      -0.001219  -0.002648   0.006373   0.005410   0.006864   0.006496
      4       0.028903  -0.037039  -0.020005   0.040278   0.000693   0.027466
      5       0.035927  -0.046634  -0.025828   0.052121   0.001000   0.035473
      6      -0.349615   0.461072   0.167528  -0.475066  -0.070299  -0.334585
      7      -0.206449   0.278167   0.093815  -0.288520  -0.048353  -0.205224
      8      -0.055688   0.077934   0.026212  -0.084858  -0.013939  -0.061983
      9      -0.021196  -0.005483  -0.028924   0.010501   0.027354  -0.020758
     10       0.012607   0.003130   0.018242  -0.007160  -0.017071   0.012946
     11       0.001586   0.000925   0.001878  -0.000293  -0.002194   0.001684
     12       0.345594   0.089952   0.483477  -0.179162  -0.467157   0.357129
     13      -0.193816  -0.043199  -0.268804   0.102309   0.251533  -0.192323
     14      -0.054148  -0.015775  -0.079103   0.030623   0.081406  -0.063912
     15      -0.024233  -0.004399  -0.036014   0.015630   0.035610  -0.028343
     16      -0.015347   0.005636  -0.021868   0.012958   0.010835  -0.008547
     17       0.035730   0.000752   0.053611  -0.025924  -0.047227   0.037331
     18       0.021189  -0.005479  -0.028924  -0.010508  -0.027341  -0.020777
     19      -0.012602   0.003130   0.018240   0.007162   0.017066   0.012962
     20      -0.001588   0.000922   0.001879   0.000296   0.002189   0.001683
     21       0.024204  -0.004426  -0.035992  -0.015611  -0.035635  -0.028408
     22       0.015325   0.005612  -0.021852  -0.012942  -0.010867  -0.008589
     23      -0.035696   0.000788   0.053589   0.025903   0.047268   0.037427
     24      -0.345469   0.089904   0.483437   0.179253   0.466974   0.357493
     25       0.193748  -0.043172  -0.268785  -0.102363  -0.251436  -0.192520
     26       0.054134  -0.015771  -0.079104  -0.030639  -0.081383  -0.063984
     27      -0.022090  -0.029503  -0.010501  -0.030054  -0.004287   0.020915
     28      -0.012355  -0.015674  -0.005262  -0.015706  -0.002768   0.011104
     29      -0.001673  -0.002197  -0.000182  -0.002094  -0.000825   0.001671
     30       0.349620   0.461137   0.167302   0.475087   0.070620  -0.334504
     31       0.206449   0.278205   0.093679   0.288532   0.048547  -0.205171
     32       0.055692   0.077950   0.026172   0.084862   0.013999  -0.061968
     33       0.001221  -0.002650   0.006377  -0.005409  -0.006869   0.006489
     34      -0.028906  -0.037034  -0.019998  -0.040280  -0.000714   0.027473
     35      -0.035929  -0.046631  -0.025816  -0.052123  -0.001028   0.035477
     36      -0.000301  -0.001142   0.000621   0.000495  -0.001358  -0.000877
     37      -0.024987  -0.026251   0.023119   0.021752  -0.026703  -0.024222
     38       0.001647   0.001199  -0.001832  -0.001760   0.001344   0.001612
     39       0.025363   0.032731  -0.016222  -0.014287   0.029622   0.021936
     40      -0.013239  -0.013718   0.015937   0.018363  -0.018261  -0.019935
     41       0.035488   0.044919  -0.027377  -0.028027   0.045070   0.037460
     42      -0.004634  -0.003337   0.010990   0.012678  -0.008024  -0.011280
     43       0.401119   0.425853  -0.371909  -0.358573   0.437229   0.401226
     44      -0.054915  -0.060057   0.054675   0.055502  -0.066226  -0.063211
     45       0.000302  -0.001143   0.000621  -0.000497   0.001360  -0.000878
     46       0.024995  -0.026252   0.023113  -0.021741   0.026723  -0.024202
     47      -0.001647   0.001198  -0.001831   0.001757  -0.001343   0.001607
     48      -0.025378   0.032744  -0.016223   0.014305  -0.029662   0.021945
     49       0.013248  -0.013725   0.015939  -0.018367   0.018287  -0.019935
     50      -0.035514   0.044941  -0.027384   0.028062  -0.045139   0.037479
     51       0.004637  -0.003339   0.010989  -0.012674   0.008037  -0.011278
     52      -0.401244   0.425884  -0.371808   0.358410  -0.437568   0.400916
     53       0.054932  -0.060060   0.054661  -0.055476   0.066277  -0.063163
                 48         49         50         51         52         53    
      0       0.000378   0.000288   0.000452  -0.000422   0.000380  -0.000152
      1       0.004892   0.002769  -0.026289   0.023494   0.003720  -0.009145
      2       0.006500   0.003663  -0.036187   0.032361   0.004874  -0.012294
      3       0.013741   0.007751  -0.070519   0.063160   0.009726  -0.024193
      4      -0.069875  -0.039131   0.392468  -0.351258  -0.052000   0.132508
      5      -0.104102  -0.058316   0.583597  -0.522225  -0.077466   0.196962
      6      -0.017787  -0.011155   0.061959  -0.055042  -0.014666   0.026250
      7      -0.009284  -0.005768   0.023975  -0.021432  -0.007197   0.011664
      8      -0.000106  -0.000582  -0.009238   0.008444  -0.001172  -0.000289
      9      -0.015533   0.027276  -0.004083  -0.003026  -0.000272   0.003455
     10      -0.009128   0.016076  -0.002007  -0.001322  -0.000670   0.002563
     11       0.024725  -0.043456   0.005997   0.004217   0.001024  -0.006021
     12       0.037805  -0.066036   0.014571   0.013409  -0.005800  -0.002484
     13      -0.029823   0.051963  -0.010100  -0.008295   0.002123   0.004020
     14       0.005801  -0.010243  -0.000961  -0.001905   0.002251  -0.002703
     15       0.207725  -0.365227   0.049619   0.034214   0.009657  -0.051557
     16       0.175232  -0.308175   0.041958   0.029654   0.007133  -0.042243
     17      -0.398447   0.700460  -0.095368  -0.066253  -0.017629   0.097690
     18      -0.027310  -0.015512  -0.004342   0.002435  -0.001953  -0.002848
     19      -0.016068  -0.009155  -0.002126   0.000995  -0.001836  -0.001914
     20       0.043485   0.024725   0.006364  -0.003306   0.003862   0.004730
     21       0.365356   0.207822   0.052599  -0.026595   0.033796   0.040121
     22       0.308276   0.175394   0.044529  -0.023252   0.027054   0.033208
     23      -0.700819  -0.398581  -0.101136   0.051652  -0.063498  -0.076312
     24       0.066372   0.037478   0.015669  -0.011738  -0.003577   0.004614
     25      -0.052265  -0.029447  -0.010786   0.007030  -0.000259  -0.004352
     26       0.010196   0.005837  -0.001117   0.001958   0.003221   0.001365
     27       0.000175  -0.000439   0.000414   0.000474   0.000394  -0.000045
     28       0.002969  -0.004981  -0.023966  -0.025541   0.008286   0.006567
     29       0.003962  -0.006608  -0.032991  -0.035190   0.011050   0.008894
     30      -0.010008   0.018924   0.056458   0.059637  -0.026940  -0.016896
     31      -0.005194   0.009800   0.021814   0.023139  -0.012486  -0.007170
     32       0.000270   0.000522  -0.008435  -0.009254  -0.000624   0.000881
     33       0.008330  -0.013953  -0.064280  -0.068658   0.021850   0.017437
     34      -0.042739   0.070837   0.357784   0.381967  -0.118707  -0.096125
     35      -0.063653   0.105545   0.532034   0.567888  -0.176609  -0.142804
     36       0.003070   0.001834  -0.004553  -0.007776  -0.026584  -0.015514
     37      -0.001164  -0.000780   0.003064   0.004801   0.014880   0.008593
     38       0.004792   0.002896  -0.007307  -0.012411  -0.041920  -0.024422
     39      -0.050640  -0.030460   0.075336   0.128339   0.433272   0.252445
     40       0.018469   0.011357  -0.026085  -0.045112  -0.155460  -0.090586
     41      -0.079028  -0.047834   0.116940   0.199621   0.675721   0.393544
     42       0.001693   0.001259  -0.001209  -0.002804  -0.012069  -0.006879
     43       0.000487   0.001165  -0.021776  -0.029799  -0.078591  -0.044806
     44       0.004303   0.002479   0.000218  -0.001530  -0.009682  -0.005734
     45       0.001646  -0.003091  -0.004874   0.006775  -0.016450   0.026246
     46      -0.000564   0.001231   0.003285  -0.004188   0.009261  -0.014625
     47       0.002549  -0.004854  -0.007826   0.010820  -0.025963   0.041352
     48      -0.027036   0.051200   0.080704  -0.111925   0.268340  -0.427426
     49       0.009749  -0.018895  -0.027933   0.039312  -0.096257   0.153348
     50      -0.042046   0.080158   0.125266  -0.174068   0.418562  -0.666443
     51       0.000808  -0.001950  -0.001292   0.002434  -0.007529   0.011750
     52      -0.000456  -0.000995  -0.023344   0.025987  -0.049304   0.076912
     53       0.002431  -0.004324   0.000219   0.001360  -0.005927   0.009585


-----------
IR SPECTRUM  
-----------

 Mode    freq (cm**-1)   T**2         TX         TY         TZ
-------------------------------------------------------------------
   6:        29.42    0.141193  (  0.129987  -0.256165   0.242231)
   7:        38.28    0.194458  ( -0.257621   0.335457   0.124731)
   8:        42.91    0.000036  ( -0.005362   0.000636   0.002702)
   9:        48.35    0.000159  ( -0.001096  -0.008749  -0.008992)
  10:        57.58    0.000015  (  0.001858   0.002955  -0.001771)
  11:        84.28    3.064731  ( -0.057044   0.226041  -1.735045)
  12:       163.11    0.000120  ( -0.008541  -0.000486  -0.006816)
  13:       196.21   79.366399  (  0.268539  -2.811306  -8.449310)
  14:       207.14    0.003644  (  0.010191   0.017855   0.056756)
  15:       218.72   12.183867  (  2.442580   1.688452   1.834885)
  16:       221.22   30.838470  ( -3.005243   4.589808   0.860608)
  17:       230.53    0.000328  ( -0.014875   0.002352  -0.010055)
  18:       268.78  351.562666  (-15.760766 -10.144247   0.505156)
  19:       282.12  348.329622  (-10.258533  15.531198  -1.368942)
  20:       298.58    0.006425  ( -0.018954   0.077361  -0.009021)
  21:       305.42    0.000190  (  0.007897  -0.010929   0.002894)
  22:       306.36    0.000094  (  0.007166   0.005552   0.003425)
  23:       337.64    3.808572  (  0.418831   0.222905  -1.893004)
  24:       420.43    0.000211  ( -0.012382  -0.000033   0.007615)
  25:       433.96   48.829991  ( -2.800956  -6.367620   0.661854)
  26:       440.39   43.969954  (  6.462005  -1.383940   0.545118)
  27:       459.09   31.371639  (  0.781121  -0.186544  -5.543166)
  28:       462.02    0.002814  (  0.023136  -0.004199  -0.047547)
  29:       465.40    0.000485  ( -0.017766  -0.000383   0.013028)
  30:       787.01  261.075333  ( -0.369661  -0.015058  16.153590)
  31:       807.20    0.000009  ( -0.001394  -0.002441  -0.000790)
  32:       810.70    0.000079  (  0.001724  -0.001156  -0.008617)
  33:       900.58  163.596169  (-11.837116   4.835104  -0.317218)
  34:       904.89  162.963762  ( -4.839240 -11.812232  -0.129217)
  35:       977.61    0.000005  (  0.001429   0.001612   0.000029)
  36:      1654.46  102.842775  (  0.097733  -0.081483 -10.140344)
  37:      1665.29    0.000006  (  0.000125  -0.000878   0.002234)
  38:      1666.27    0.000030  (  0.002865  -0.001835  -0.004243)
  39:      1693.28   88.171762  ( -8.447670  -4.099822   0.009580)
  40:      1694.17   87.100140  ( -4.167981   8.349732  -0.100216)
  41:      1710.26    0.000024  (  0.001487  -0.004545   0.001214)
  42:      3363.99    0.000049  (  0.003655  -0.005973   0.000025)
  43:      3438.45  2724.085125  ( 32.956914  40.471114   0.125961)
  44:      3440.55  2714.241954  ( 40.339128 -32.969065   0.193647)
  45:      3495.81    0.000054  (  0.003954  -0.006147   0.000596)
  46:      3497.33    0.000041  (  0.003944  -0.001568   0.004808)
  47:      3514.54  158.626008  (  0.572339   0.267116 -12.578835)
  48:      3913.71  157.405352  (  7.791938  -0.223225  -9.830627)
  49:      3913.77   11.877456  ( -2.139111   0.077846   2.701037)
  50:      3914.93  153.625067  (  6.849042   6.308597   8.180299)
  51:      3914.95    0.337100  (  0.397683   0.152638   0.394525)
  52:      3916.23  127.276491  (  4.162704  -9.195411   5.039126)
  53:      3916.43    7.870180  ( -1.082589   2.229387  -1.314541)

The first frequency considered to be a vibration is 6
The total number of vibrations considered is 48


--------------------------
THERMOCHEMISTRY AT 298.15K
--------------------------

Temperature         ... 298.15 K
Pressure            ... 1.00 atm
Total Mass          ... 108.09 AMU

Throughout the following assumptions are being made:
  (1) The electronic state is orbitally nondegenerate
  (2) There are no thermally accessible electronically excited states
  (3) Hindered rotations indicated by low frequency modes are not
      treated as such but are treated as vibrations and this may
      cause some error
  (4) All equations used are the standard statistical mechanics
      equations for an ideal gas
  (5) All vibrations are strictly harmonic

freq.      29.42  E(vib)   ...       0.55 
freq.      38.28  E(vib)   ...       0.54 
freq.      42.91  E(vib)   ...       0.53 
freq.      48.35  E(vib)   ...       0.53 
freq.      57.58  E(vib)   ...       0.51 
freq.      84.28  E(vib)   ...       0.48 
freq.     163.11  E(vib)   ...       0.39 
freq.     196.21  E(vib)   ...       0.36 
freq.     207.14  E(vib)   ...       0.34 
freq.     218.72  E(vib)   ...       0.33 
freq.     221.22  E(vib)   ...       0.33 
freq.     230.53  E(vib)   ...       0.32 
freq.     268.78  E(vib)   ...       0.29 
freq.     282.12  E(vib)   ...       0.28 
freq.     298.58  E(vib)   ...       0.26 
freq.     305.42  E(vib)   ...       0.26 
freq.     306.36  E(vib)   ...       0.26 
freq.     337.64  E(vib)   ...       0.24 
freq.     420.43  E(vib)   ...       0.18 
freq.     433.96  E(vib)   ...       0.17 
freq.     440.39  E(vib)   ...       0.17 
freq.     459.09  E(vib)   ...       0.16 
freq.     462.02  E(vib)   ...       0.16 
freq.     465.40  E(vib)   ...       0.16 
freq.     787.01  E(vib)   ...       0.05 
freq.     807.20  E(vib)   ...       0.05 
freq.     810.70  E(vib)   ...       0.05 
freq.     900.58  E(vib)   ...       0.03 
freq.     904.89  E(vib)   ...       0.03 
freq.     977.61  E(vib)   ...       0.03 
freq.    1654.46  E(vib)   ...       0.00 
freq.    1665.29  E(vib)   ...       0.00 
freq.    1666.27  E(vib)   ...       0.00 
freq.    1693.28  E(vib)   ...       0.00 
freq.    1694.17  E(vib)   ...       0.00 
freq.    1710.26  E(vib)   ...       0.00 
freq.    3363.99  E(vib)   ...       0.00 
freq.    3438.45  E(vib)   ...       0.00 
freq.    3440.55  E(vib)   ...       0.00 
freq.    3495.81  E(vib)   ...       0.00 
freq.    3497.33  E(vib)   ...       0.00 
freq.    3514.54  E(vib)   ...       0.00 
freq.    3913.71  E(vib)   ...       0.00 
freq.    3913.77  E(vib)   ...       0.00 
freq.    3914.93  E(vib)   ...       0.00 
freq.    3914.95  E(vib)   ...       0.00 
freq.    3916.23  E(vib)   ...       0.00 
freq.    3916.43  E(vib)   ...       0.00 

------------
INNER ENERGY
------------

The inner energy is: U= E(el) + E(ZPE) + E(vib) + E(rot) + E(trans)
    E(el)   - is the total energy from the electronic structure calculation
              = E(kin-el) + E(nuc-el) + E(el-el) + E(nuc-nuc)
    E(ZPE)  - the the zero temperature vibrational energy from the frequency calculation
    E(vib)  - the the finite temperature correction to E(ZPE) due to population
              of excited vibrational states
    E(rot)  - is the rotational thermal energy
    E(trans)- is the translational thermal energy

Summary of contributions to the inner energy U:
Electronic energy                ...   -458.41941154 Eh
Zero point energy                ...      0.14928913 Eh      93.68 kcal/mol
Thermal vibrational correction   ...      0.01284516 Eh       8.06 kcal/mol
Thermal rotational correction    ...      0.00141627 Eh       0.89 kcal/mol
Thermal translational correction ...      0.00141627 Eh       0.89 kcal/mol
-----------------------------------------------------------------------
Total thermal energy                   -458.25444471 Eh


Summary of corrections to the electronic energy:
(perhaps to be used in another calculation)
Total thermal correction                  0.01567770 Eh       9.84 kcal/mol
Non-thermal (ZPE) correction              0.14928913 Eh      93.68 kcal/mol
-----------------------------------------------------------------------
Total correction                          0.16496683 Eh     103.52 kcal/mol


--------
ENTHALPY
--------

The enthalpy is H = U + kB*T
                kB is Boltzmann's constant
Total free energy                 ...   -458.25444471 Eh 
Thermal Enthalpy correction       ...      0.00094421 Eh       0.59 kcal/mol
-----------------------------------------------------------------------
Total Enthalpy                    ...   -458.25350050 Eh


Note: Only C1 symmetry has been detected, increase convergence thresholds 
      if your molecule has a higher symmetry. Symmetry factor of 1.0 is   
      used for the rotational entropy correction. 
 

Note: Rotational entropy computed according to Herzberg 
Infrared and Raman Spectra, Chapter V,1, Van Nostrand Reinhold, 1945 
Point Group:  C1, Symmetry Number:   1  
Rotational constants in cm-1:     0.042011     0.041977     0.021415 

Vibrational entropy computed according to the QRRHO of S. Grimme
Chem.Eur.J. 2012 18 9955


-------
ENTROPY
-------

The entropy contributions are T*S = T*(S(el)+S(vib)+S(rot)+S(trans))
     S(el)   - electronic entropy
     S(vib)  - vibrational entropy
     S(rot)  - rotational entropy
     S(trans)- translational entropy
The entropies will be listed as mutliplied by the temperature to get
units of energy

Electronic entropy                ...      0.00000000 Eh      0.00 kcal/mol
Vibrational entropy               ...      0.02333068 Eh     14.64 kcal/mol
Rotational entropy                ...      0.01431865 Eh      8.99 kcal/mol
Translational entropy             ...      0.01898142 Eh     11.91 kcal/mol
-----------------------------------------------------------------------
Final entropy term                ...      0.05663075 Eh     35.54 kcal/mol

In case the symmetry of your molecule has not been determined correctly
or in case you have a reason to use a different symmetry number we print 
out the resulting rotational entropy values for sn=1,12 :
 --------------------------------------------------------
|  sn= 1 | S(rot)=       0.01431865 Eh      8.99 kcal/mol|
|  sn= 2 | S(rot)=       0.01366419 Eh      8.57 kcal/mol|
|  sn= 3 | S(rot)=       0.01328136 Eh      8.33 kcal/mol|
|  sn= 4 | S(rot)=       0.01300973 Eh      8.16 kcal/mol|
|  sn= 5 | S(rot)=       0.01279905 Eh      8.03 kcal/mol|
|  sn= 6 | S(rot)=       0.01262690 Eh      7.92 kcal/mol|
|  sn= 7 | S(rot)=       0.01248136 Eh      7.83 kcal/mol|
|  sn= 8 | S(rot)=       0.01235528 Eh      7.75 kcal/mol|
|  sn= 9 | S(rot)=       0.01224407 Eh      7.68 kcal/mol|
|  sn=10 | S(rot)=       0.01214459 Eh      7.62 kcal/mol|
|  sn=11 | S(rot)=       0.01205460 Eh      7.56 kcal/mol|
|  sn=12 | S(rot)=       0.01197245 Eh      7.51 kcal/mol|
 --------------------------------------------------------


-------------------
GIBBS FREE ENERGY
-------------------

The Gibbs free energy is G = H - T*S

Total enthalpy                    ...   -458.25350050 Eh 
Total entropy correction          ...     -0.05663075 Eh    -35.54 kcal/mol
-----------------------------------------------------------------------
Final Gibbs free energy         ...   -458.31013125 Eh

For completeness - the Gibbs free energy minus the electronic energy
G-E(el)                           ...      0.10928029 Eh     68.57 kcal/mol


Total Time for Numerical Frequencies  :      9816.766 sec

Timings for individual modules:

Sum of individual times         ...      532.604 sec (=   8.877 min)
GTO integral calculation        ...        4.482 sec (=   0.075 min)   0.8 %
SCF iterations                  ...       35.707 sec (=   0.595 min)   6.7 %
MP2 module                      ...      492.017 sec (=   8.200 min)  92.4 %
Geometry relaxation             ...        0.398 sec (=   0.007 min)   0.1 %
                             ****ORCA TERMINATED NORMALLY****
TOTAL RUN TIME: 0 days 2 hours 50 minutes 48 seconds 249 msec
