
                                 *****************
                                 * O   R   C   A *
                                 *****************

           --- An Ab Initio, DFT and Semiempirical electronic structure package ---

                  #######################################################
                  #                        -***-                        #
                  #          Department of theory and spectroscopy      #
                  #               Directorship: Frank Neese             #
                  #        Max Planck Institute fuer Kohlenforschung    #
                  #                Kaiser Wilhelm Platz 1               #
                  #                 D-45470 Muelheim/Ruhr               #
                  #                      Germany                        #
                  #                                                     #
                  #                  All rights reserved                #
                  #                        -***-                        #
                  #######################################################


                         Program Version 4.2.0 -  RELEASE  -


 With contributions from (in alphabetic order):
   Daniel Aravena         : Magnetic Suceptibility
   Michael Atanasov       : Ab Initio Ligand Field Theory (pilot matlab implementation)
   Alexander A. Auer      : GIAO ZORA, VPT2
   Ute Becker             : Parallelization
   Giovanni Bistoni       : ED, misc. LED, open-shell LED, HFLED
   Martin Brehm           : Molecular dynamics
   Dmytro Bykov           : SCF Hessian
   Vijay G. Chilkuri      : MRCI spin determinant printing, contributions to CSF-ICE
   Dipayan Datta          : RHF DLPNO-CCSD density
   Achintya Kumar Dutta   : EOM-CC, STEOM-CC
   Dmitry Ganyushin       : Spin-Orbit,Spin-Spin,Magnetic field MRCI
   Miquel Garcia          : C-PCM Hessian, Gaussian charge scheme
   Yang Guo               : DLPNO-NEVPT2, CIM, IAO-localization
   Andreas Hansen         : Spin unrestricted coupled pair/coupled cluster methods
   Benjamin Helmich-Paris : CASSCF linear response (MC-RPA)
   Lee Huntington         : MR-EOM, pCC
   Robert Izsak           : Overlap fitted RIJCOSX, COSX-SCS-MP3, EOM
   Christian Kollmar      : KDIIS, OOCD, Brueckner-CCSD(T), CCSD density
   Simone Kossmann        : Meta GGA functionals, TD-DFT gradient, OOMP2, MP2 Hessian
   Martin Krupicka        : AUTO-CI
   Lucas Lang             : DCDCAS
   Dagmar Lenk            : GEPOL surface, SMD
   Dimitrios Liakos       : Extrapolation schemes; Compound Job, initial MDCI parallelization
   Dimitrios Manganas     : Further ROCIS development; embedding schemes
   Dimitrios Pantazis     : SARC Basis sets
   Taras Petrenko         : DFT Hessian,TD-DFT gradient, ASA, ECA, R-Raman, ABS, FL, XAS/XES, NRVS
   Peter Pinski           : DLPNO-MP2, DLPNO-MP2 Gradient
   Christoph Reimann      : Effective Core Potentials
   Marius Retegan         : Local ZFS, SOC
   Christoph Riplinger    : Optimizer, TS searches, QM/MM, DLPNO-CCSD(T), (RO)-DLPNO pert. Triples
   Tobias Risthaus        : Range-separated hybrids, TD-DFT gradient, RPA, STAB
   Michael Roemelt        : Original ROCIS implementation
   Masaaki Saitow         : Open-shell DLPNO-CCSD energy and density
   Barbara Sandhoefer     : DKH picture change effects
   Avijit Sen             : IP-ROCIS
   Kantharuban Sivalingam : CASSCF convergence, NEVPT2, FIC-MRCI
   Bernardo de Souza      : ESD, SOC TD-DFT
   Georgi Stoychev        : AutoAux, RI-MP2 NMR
   Willem Van den Heuvel  : Paramagnetic NMR
   Boris Wezisla          : Elementary symmetry handling
   Frank Wennmohs         : Technical directorship


 We gratefully acknowledge several colleagues who have allowed us to
 interface, adapt or use parts of their codes:
   Stefan Grimme, W. Hujo, H. Kruse,             : VdW corrections, initial TS optimization,
                  C. Bannwarth                     DFT functionals, gCP, sTDA/sTD-DF
   Ed Valeev, F. Pavosevic, A. Kumar             : LibInt (2-el integral package), F12 methods
   Garnet Chan, S. Sharma, J. Yang, R. Olivares  : DMRG
   Ulf Ekstrom                                   : XCFun DFT Library
   Mihaly Kallay                                 : mrcc  (arbitrary order and MRCC methods)
   Andreas Klamt, Michael Diedenhofen            : otool_cosmo (COSMO solvation model)
   Jiri Pittner, Ondrej Demel                    : Mk-CCSD
   Frank Weinhold                                : gennbo (NPA and NBO analysis)
   Christopher J. Cramer and Donald G. Truhlar   : smd solvation model
   Lars Goerigk                                  : TD-DFT with DH, B97 family of functionals
   V. Asgeirsson, H. Jonsson                     : NEB implementation
   FAccTs GmbH                                   : IRC, NEB, NEB-TS, Multilevel, MM, QM/MM, CI optimization
   S Lehtola, MJT Oliveira, MAL Marques          : LibXC Library


 Your calculation uses the libint2 library for the computation of 2-el integrals
 For citations please refer to: http://libint.valeyev.net

 Your ORCA version has been built with support for libXC version: 4.2.3
 For citations please refer to: https://tddft.org/programs/libxc/

 This ORCA versions uses:
   CBLAS   interface :  Fast vector & matrix operations
   LAPACKE interface :  Fast linear algebra routines
   SCALAPACK package :  Parallel linear algebra routines


Your calculation utilizes the atom-pairwise dispersion correction
with the Becke-Johnson damping scheme (D3BJ)
Cite in your paper:
S.Grimme, S.Ehrlich, L.Goerigk, J Comput Chem, (2011), 32, 1456–1465 
S.Grimme, J.Antony, S.Ehrlich and H.Krieg, J.Chem.Phys., 132, (2010), 154104 
   

----- Orbital basis set information -----
Your calculation utilizes the basis: aug-cc-pV(T+d)Z 
             Al - Ar: T.H. Dunning, Jr., K. A. Peterson and A. K. Wilson, J. Chem. Phys.
                      114, 9244 (2001)

----- AuxC basis set information -----
Your calculation utilizes the auxiliary basis: def2-TZVP/C
  H-La, Hf-Rn : A. Hellweg, C. Hattig, S. Hofener and W. Klopper, Theor. Chem. Acc. 117, 587 (2007).
        Ce-Lu : J. Chmela and M. E. Harding, Mol. Phys. (2018).

----- AuxJK basis set information -----
Your calculation utilizes the auxiliary basis: def2/JK
   H-Ba, Hf-Rn: F. Weigend, J. Comput. Chem. 29, 167 (2008).

================================================================================
                                        WARNINGS
                       Please study these warnings very carefully!
================================================================================


WARNING: The frozen-core approximation for MP2-gradient calculations is turned on by default.

WARNING: Geometry Optimization
  ===> : Switching off AutoStart
         For restart on a previous wavefunction, please use MOREAD

WARNING: There are different parametrizations of Gershom Martin's DSD-DFs
         for use with and without D3(BJ)!
         You are using the D3(BJ) parametrized version,
         consistent with the 2013 article (S. Kozuch and J. M. L. Martin, JCC 2013, 34, 2327)

WARNING: The frozen-core approximation is turned on by default for 
         the MP2 part of double-hybrid DFT.

INFO   : the flag for use of LIBINT has been found!

================================================================================
                                       INPUT FILE
================================================================================
NAME = 07_H2O_6_book.in
|  1> #
|  2> # 07_H2O_6_book dsd-blyp/aug-cc-pvt(+d)z
|  3> #
|  4> ! rijk ri-dsd-blyp/2013 d3bj aug-cc-pvt(+d)z def2/jk def2-tzvp/c grid4 nofinalgrid opt xyzfile numfreq
|  5> 
|  6> *xyz 0 1
|  7> O	0.116757	1.553296	0.874144
|  8> H	0.955357	1.526953	0.36374
|  9> H	0.278593	2.140101	1.61497
| 10> O	-0.028991	-1.36957	0.910464
| 11> H	-0.055528	-0.424567	1.109294
| 12> H	-0.872074	-1.539194	0.457007
| 13> O	-2.340721	1.363977	-0.433023
| 14> H	-1.482171	1.543988	-0.013805
| 15> H	-2.349173	1.886417	-1.236377
| 16> O	-2.490803	-1.41279	-0.437012
| 17> H	-2.562332	-0.444637	-0.504051
| 18> H	-3.290032	-1.695404	0.010212
| 19> O	2.424786	1.214249	-0.477895
| 20> H	2.508896	0.237506	-0.500154
| 21> H	2.55493	1.502809	-1.382466
| 22> O	2.31194	-1.486888	-0.434852
| 23> H	1.449966	-1.577886	0.025804
| 24> H	2.919833	-2.054267	0.041233
| 25> *
| 26> 
| 27> %maxcore 5000
| 28> 
| 29> %pal
| 30> nprocs 24
| 31> end
| 32> 
| 33> 
| 34>                          ****END OF INPUT****
================================================================================

                       *****************************
                       * Geometry Optimization Run *
                       *****************************

Geometry optimization settings:
Update method            Update   .... BFGS
Choice of coordinates    CoordSys .... Z-matrix Internals
Initial Hessian          InHess   .... Almoef's Model

Convergence Tolerances:
Energy Change            TolE     ....  5.0000e-06 Eh
Max. Gradient            TolMAXG  ....  3.0000e-04 Eh/bohr
RMS Gradient             TolRMSG  ....  1.0000e-04 Eh/bohr
Max. Displacement        TolMAXD  ....  4.0000e-03 bohr
RMS Displacement         TolRMSD  ....  2.0000e-03 bohr
Strict Convergence                ....  False
------------------------------------------------------------------------------
                        ORCA OPTIMIZATION COORDINATE SETUP
------------------------------------------------------------------------------

The optimization will be done in new redundant internal coordinates
Making redundant internal coordinates   ...  (new redundants) done
Evaluating the initial hessian          ...  (Almloef) done
Evaluating the coordinates              ...  done
Calculating the B-matrix                .... done
Calculating the G-matrix                .... done
Diagonalizing the G-matrix              .... done
The first mode is                       ....  119
The number of degrees of freedom        ....   48

    -----------------------------------------------------------------
                    Redundant Internal Coordinates


    -----------------------------------------------------------------
         Definition                    Initial Value    Approx d2E/dq
    -----------------------------------------------------------------
      1. B(H   1,O   0)                  0.9821         0.479468   
      2. B(H   2,O   0)                  0.9588         0.522197   
      3. B(H   4,O   3)                  0.9661         0.508512   
      4. B(H   4,O   0)                  1.9992         0.011427   
      5. B(H   5,O   3)                  0.9722         0.497156   
      6. B(H   7,O   6)                  0.9722         0.497089   
      7. B(H   7,O   0)                  1.8290         0.021359   
      8. B(H   8,O   6)                  0.9583         0.523160   
      9. B(O   9,H   5)                  1.8535         0.019517   
     10. B(H  10,O   9)                  0.9731         0.495519   
     11. B(H  10,H   7)                  2.3155         0.000764   
     12. B(H  10,H   5)                  2.2313         0.001041   
     13. B(H  10,O   6)                  1.8235         0.021791   
     14. B(H  11,O   9)                  0.9585         0.522905   
     15. B(O  12,H   1)                  1.7220         0.031638   
     16. B(H  13,H   1)                  2.1960         0.001186   
     17. B(H  13,O  12)                  0.9806         0.482041   
     18. B(H  14,O  12)                  0.9584         0.523099   
     19. B(O  15,H  13)                  1.7368         0.029963   
     20. B(H  16,O  15)                  0.9816         0.480341   
     21. B(H  16,H   4)                  2.1842         0.001238   
     22. B(H  16,O   3)                  1.7359         0.030066   
     23. B(H  16,H  13)                  2.1665         0.001321   
     24. B(H  17,O  15)                  0.9582         0.523443   
     25. A(H   1,O   0,H   7)          119.6074         0.199991   
     26. A(H   1,O   0,H   2)          105.8933         0.317823   
     27. A(H   2,O   0,H   7)          121.7208         0.202157   
     28. A(H   2,O   0,H   4)          121.9466         0.187219   
     29. A(H   1,O   0,H   4)           96.2104         0.185339   
     30. A(H   4,O   0,H   7)           88.6667         0.136641   
     31. A(O   0,H   1,H  13)          145.5171         0.135671   
     32. A(O  12,H   1,H  13)           25.5029         0.114226   
     33. A(O   0,H   1,O  12)          170.9471         0.210313   
     34. A(H   4,O   3,H  16)          104.2222         0.210528   
     35. A(H   4,O   3,H   5)          104.0546         0.318325   
     36. A(H   5,O   3,H  16)          118.6979         0.209909   
     37. A(O   0,H   4,O   3)          160.2499         0.186630   
     38. A(O   3,H   4,H  16)           50.3900         0.136764   
     39. A(O   0,H   4,H  16)          113.8689         0.109231   
     40. A(O   3,H   5,H  10)          140.5539         0.134695   
     41. A(O   3,H   5,O   9)          166.0271         0.198643   
     42. A(O   9,H   5,H  10)           25.4751         0.110959   
     43. A(H   7,O   6,H   8)          105.5637         0.319796   
     44. A(H   8,O   6,H  10)          120.4626         0.202717   
     45. A(H   7,O   6,H  10)          107.9236         0.201409   
     46. A(O   6,H   7,H  10)           48.5295         0.131602   
     47. A(O   0,H   7,H  10)          120.9955         0.109896   
     48. A(O   0,H   7,O   6)          169.1964         0.200902   
     49. A(H   5,O   9,H  10)           99.5131         0.198562   
     50. A(H   5,O   9,H  11)          118.8861         0.199904   
     51. A(H  10,O   9,H  11)          105.3202         0.319606   
     52. A(H   5,H  10,H   7)           88.6664         0.097533   
     53. A(H   7,H  10,O   9)          143.6656         0.131572   
     54. A(H   5,H  10,O   6)          112.1913         0.111514   
     55. A(O   6,H  10,O   9)          167.2030         0.201328   
     56. A(H   5,H  10,O   9)           55.0117         0.134661   
     57. A(O   6,H  10,H   7)           23.5469         0.109991   
     58. A(H  13,O  12,H  14)          105.4762         0.318190   
     59. A(H   1,O  12,H  14)          121.5014         0.212728   
     60. A(H   1,O  12,H  13)          105.3765         0.210460   
     61. A(O  12,H  13,O  15)          168.0537         0.208973   
     62. A(H   1,H  13,O  12)           49.1206         0.135728   
     63. A(O  15,H  13,H  16)           26.2981         0.114537   
     64. A(H   1,H  13,H  16)           92.9083         0.098946   
     65. A(O  12,H  13,H  16)          141.9253         0.136889   
     66. A(H   1,H  13,O  15)          119.2064         0.113917   
     67. A(H  13,O  15,H  17)          122.3194         0.211231   
     68. A(H  13,O  15,H  16)          102.0796         0.208877   
     69. A(H  16,O  15,H  17)          105.6076         0.318041   
     70. A(H   4,H  16,H  13)           90.8519         0.099044   
     71. A(H   4,H  16,O  15)          142.1056         0.136152   
     72. A(O   3,H  16,H  13)          116.0783         0.114556   
     73. A(O   3,H  16,O  15)          167.4803         0.208971   
     74. A(H  13,H  16,O  15)           51.6223         0.136851   
     75. A(O   3,H  16,H   4)           25.3878         0.114183   
     76. D(H  13,H   1,O   0,H   4)     -0.0057         0.339672   
     77. D(O  12,H   1,O   0,H   2)    119.4034         0.339672   
     78. D(H  13,H   1,O   0,H   7)    -92.0066         0.339672   
     79. D(O  12,H   1,O   0,H   7)    -98.3574         0.339672   
     80. D(H  13,H   1,O   0,H   2)    125.7542         0.339672   
     81. D(O  12,H   1,O   0,H   4)     -6.3565         0.339672   
     82. D(O   0,H   4,O   3,H  16)     41.3569         0.362059   
     83. D(O   3,H   4,O   0,H   7)     79.9443         0.001582   
     84. D(H  16,H   4,O   0,H   1)     -5.8729         0.001582   
     85. D(H  16,H   4,O   0,H   2)   -118.9822         0.001582   
     86. D(H  16,H   4,O   0,H   7)    113.7687         0.001582   
     87. D(O   0,H   4,O   3,H   5)    -83.6804         0.362059   
     88. D(O   3,H   4,O   0,H   2)   -152.8066         0.001582   
     89. D(H  16,H   4,O   3,H   5)   -125.0373         0.362059   
     90. D(O   3,H   4,O   0,H   1)    -39.6973         0.001582   
     91. D(H  10,H   5,O   3,H  16)   -101.7980         0.341576   
     92. D(H  10,H   5,O   3,H   4)     13.4018         0.341576   
     93. D(O   9,H   5,O   3,H  16)   -101.0106         0.341576   
     94. D(O   9,H   5,O   3,H   4)     14.1891         0.341576   
     95. D(H  10,H   7,O   6,H   8)   -130.0312         0.341457   
     96. D(O   0,H   7,O   6,H  10)    -15.2180         0.341457   
     97. D(O   0,H   7,O   6,H   8)   -145.2492         0.341457   
     98. D(H  10,H   7,O   0,H   2)   -132.9859         0.001794   
     99. D(O   6,H   7,O   0,H   4)      7.7115         0.001794   
    100. D(O   6,H   7,O   0,H   1)    104.0979         0.001794   
    101. D(H  10,H   7,O   0,H   1)     90.8334         0.001794   
    102. D(O   6,H   7,O   0,H   2)   -119.7214         0.001794   
    103. D(H  10,H   7,O   0,H   4)     -5.5530         0.001794   
    104. D(H  11,O   9,H   5,O   3)   -114.6425         0.001723   
    105. D(H  10,O   9,H   5,O   3)     -1.1631         0.001723   
    106. D(H  11,O   9,H   5,H  10)   -113.4795         0.001723   
    107. D(H   7,H  10,O   9,H   5)      1.7205         0.369656   
    108. D(H   7,H  10,O   9,H  11)    125.3459         0.369656   
    109. D(O   6,H  10,O   9,H   5)     -0.1072         0.369656   
    110. D(O   6,H  10,O   9,H  11)    123.5182         0.369656   
    111. D(O   6,H  10,H   7,O   0)    176.7095         0.001507   
    112. D(H   5,H  10,H   7,O   6)   -177.5769         0.001507   
    113. D(H   5,H  10,O   6,H   7)      2.6164         0.001806   
    114. D(H   7,H  10,O   6,H   8)    121.1578         0.001806   
    115. D(H   5,H  10,O   6,H   8)    123.7742         0.001806   
    116. D(O   9,H  10,H   7,O   0)     -2.2773         0.001507   
    117. D(O   9,H  10,O   6,H   8)    123.8690         0.001806   
    118. D(O   9,H  10,O   6,H   7)      2.7112         0.001806   
    119. D(H   7,H  10,H   5,O   9)   -178.9804         0.001512   
    120. D(H   5,H  10,H   7,O   0)     -0.8674         0.001507   
    121. D(H   5,H  10,O   9,H  11)    123.6254         0.369656   
    122. D(O   9,H  10,H   7,O   6)   -178.9868         0.001507   
    123. D(H   7,H  10,H   5,O   3)      0.5776         0.001512   
    124. D(O   6,H  10,H   5,O   9)    179.9744         0.001512   
    125. D(O   6,H  10,H   5,O   3)     -0.4676         0.001512   
    126. D(O   9,H  10,H   5,O   3)    179.5580         0.001512   
    127. D(H  14,O  12,H   1,H  13)    119.5452         0.002109   
    128. D(H  14,O  12,H   1,O   0)    127.9087         0.002109   
    129. D(H  13,O  12,H   1,O   0)      8.3635         0.002109   
    130. D(O  15,H  13,O  12,H   1)     13.2536         0.344366   
    131. D(O  15,H  13,O  12,H  14)   -116.4227         0.344366   
    132. D(H   1,H  13,O  12,H  14)   -129.6763         0.344366   
    133. D(H  16,H  13,H   1,O  12)   -176.8885         0.001515   
    134. D(H  16,H  13,H   1,O   0)      5.4282         0.001515   
    135. D(O  15,H  13,H   1,O  12)   -176.8834         0.001515   
    136. D(O  15,H  13,H   1,O   0)      5.4333         0.001515   
    137. D(H  16,H  13,O  12,H  14)   -124.6333         0.344366   
    138. D(O  12,H  13,H   1,O   0)   -177.6833         0.001515   
    139. D(H  16,H  13,O  12,H   1)      5.0430         0.344366   
    140. D(H  17,O  15,H  13,H  16)   -117.4498         0.002093   
    141. D(H  17,O  15,H  13,H   1)   -117.4613         0.002093   
    142. D(H  17,O  15,H  13,O  12)   -128.9157         0.002093   
    143. D(H  16,O  15,H  13,H   1)     -0.0115         0.002093   
    144. D(H  16,O  15,H  13,O  12)    -11.4659         0.002093   
    145. D(H   4,H  16,O  15,H  13)     -9.3773         0.341260   
    146. D(O   3,H  16,O  15,H  13)    -11.5766         0.341260   
    147. D(O   3,H  16,O  15,H  17)    117.2864         0.341260   
    148. D(H  13,H  16,O  15,H  17)    128.8630         0.341260   
    149. D(H   4,H  16,H  13,H   1)     -5.7542         0.001520   
    150. D(H   4,H  16,H  13,O  12)     -9.5700         0.001520   
    151. D(O   3,H  16,H  13,O  15)    177.2239         0.001520   
    152. D(O   3,H  16,H  13,H   1)     -2.7861         0.001520   
    153. D(O   3,H  16,H  13,O  12)     -6.6019         0.001520   
    154. D(O  15,H  16,H  13,H   1)    179.9900         0.001520   
    155. D(O  15,H  16,H  13,O  12)    176.1742         0.001520   
    156. D(O   3,H  16,H   4,O   0)   -165.8677         0.001517   
    157. D(H  13,H  16,H   4,O   0)      7.9048         0.001517   
    158. D(H  13,H  16,H   4,O   3)    173.7725         0.001517   
    159. D(O  15,H  16,H   4,O   0)     15.2440         0.001517   
    160. D(O  15,H  16,H   4,O   3)   -178.8882         0.001517   
    161. D(H   4,H  16,H  13,O  15)    174.2558         0.001520   
    162. D(H   4,H  16,O   3,H   5)    115.1099         0.002098   
    163. D(H  13,H  16,O   3,H   5)    108.1740         0.002098   
    164. D(H  13,H  16,O   3,H   4)     -6.9359         0.002098   
    165. D(H   4,H  16,O  15,H  17)    119.4857         0.341260   
    166. D(O  15,H  16,O   3,H   5)    118.2613         0.002098   
    167. D(O  15,H  16,O   3,H   4)      3.1515         0.002098   
    -----------------------------------------------------------------

Number of atoms                         .... 18
Number of degrees of freedom            .... 167

         *************************************************************
         *                GEOMETRY OPTIMIZATION CYCLE   1            *
         *************************************************************
---------------------------------
CARTESIAN COORDINATES (ANGSTROEM)
---------------------------------
  O      0.116757    1.553296    0.874144
  H      0.955357    1.526953    0.363740
  H      0.278593    2.140101    1.614970
  O     -0.028991   -1.369570    0.910464
  H     -0.055528   -0.424567    1.109294
  H     -0.872074   -1.539194    0.457007
  O     -2.340721    1.363977   -0.433023
  H     -1.482171    1.543988   -0.013805
  H     -2.349173    1.886417   -1.236377
  O     -2.490803   -1.412790   -0.437012
  H     -2.562332   -0.444637   -0.504051
  H     -3.290032   -1.695404    0.010212
  O      2.424786    1.214249   -0.477895
  H      2.508896    0.237506   -0.500154
  H      2.554930    1.502809   -1.382466
  O      2.311940   -1.486888   -0.434852
  H      1.449966   -1.577886    0.025804
  H      2.919833   -2.054267    0.041233

----------------------------
CARTESIAN COORDINATES (A.U.)
----------------------------
  NO LB      ZA    FRAG     MASS         X           Y           Z
   0 O     8.0000    0    15.999    0.220639    2.935304    1.651893
   1 H     1.0000    0     1.008    1.805363    2.885523    0.687369
   2 H     1.0000    0     1.008    0.526464    4.044205    3.051851
   3 O     8.0000    0    15.999   -0.054785   -2.588112    1.720528
   4 H     1.0000    0     1.008   -0.104933   -0.802315    2.096262
   5 H     1.0000    0     1.008   -1.647981   -2.908655    0.863618
   6 O     8.0000    0    15.999   -4.423322    2.577543   -0.818295
   7 H     1.0000    0     1.008   -2.800897    2.917714   -0.026088
   8 H     1.0000    0     1.008   -4.439294    3.564812   -2.336414
   9 O     8.0000    0    15.999   -4.706936   -2.669786   -0.825833
  10 H     1.0000    0     1.008   -4.842106   -0.840242   -0.952518
  11 H     1.0000    0     1.008   -6.217259   -3.203849    0.019298
  12 O     8.0000    0    15.999    4.582181    2.294598   -0.903091
  13 H     1.0000    0     1.008    4.741126    0.448821   -0.945154
  14 H     1.0000    0     1.008    4.828118    2.839897   -2.612482
  15 O     8.0000    0    15.999    4.368933   -2.809811   -0.821751
  16 H     1.0000    0     1.008    2.740039   -2.981772    0.048762
  17 H     1.0000    0     1.008    5.517685   -3.882002    0.077919

--------------------------------
INTERNAL COORDINATES (ANGSTROEM)
--------------------------------
 O      0   0   0     0.000000000000     0.00000000     0.00000000
 H      1   0   0     0.982067287341     0.00000000     0.00000000
 H      1   2   0     0.958829578808   105.89325923     0.00000000
 O      1   2   3     2.926722958508    91.27121310   230.15359168
 H      4   1   2     0.966058099328    13.34597984   140.56968714
 H      4   1   2     0.972205995206   102.21849031   239.98902584
 O      1   2   3     2.789932861223   120.45305600   146.45374593
 H      7   1   2     0.972242662171     7.05835468   281.98792720
 H      7   1   2     0.958328043636   111.31762838   318.10503051
 O      6   4   1     1.853518685910   166.02711390     0.61250431
 H     10   6   4     0.973103723542    99.51313706   358.83694273
 H     10   6   4     0.958460731388   118.88606425   245.35748984
 O      2   1   3     1.722020572143   170.94714904   119.40344896
 H     13   2   1     0.980610444178   105.37651580     8.36351624
 H     13   2   1     0.958359550679   121.50142387   127.90872660
 O     14  13   2     1.736833522355   168.05371103    13.25357471
 H     16  14  13     0.981572087529   102.07957252   348.53406319
 H     16  14  13     0.958180440374   122.31942840   231.08426767

---------------------------
INTERNAL COORDINATES (A.U.)
---------------------------
 O      0   0   0     0.000000000000     0.00000000     0.00000000
 H      1   0   0     1.855838218157     0.00000000     0.00000000
 H      1   2   0     1.811925313050   105.89325923     0.00000000
 O      1   2   3     5.530704861441    91.27121310   230.15359168
 H      4   1   2     1.825585237187    13.34597984   140.56968714
 H      4   1   2     1.837203076695   102.21849031   239.98902584
 O      1   2   3     5.272209039739   120.45305600   146.45374593
 H      7   1   2     1.837272367217     7.05835468   281.98792720
 H      7   1   2     1.810977548929   111.31762838   318.10503051
 O      6   4   1     3.502642700476   166.02711390     0.61250431
 H     10   6   4     1.838899537393    99.51313706   358.83694273
 H     10   6   4     1.811228292441   118.88606425   245.35748984
 O      2   1   3     3.254147278328   170.94714904   119.40344896
 H     13   2   1     1.853085183558   105.37651580     8.36351624
 H     13   2   1     1.811037088610   121.50142387   127.90872660
 O     14  13   2     3.282139697465   168.05371103    13.25357471
 H     16  14  13     1.854902426131   102.07957252   348.53406319
 H     16  14  13     1.810698619187   122.31942840   231.08426767

---------------------
BASIS SET INFORMATION
---------------------
There are 2 groups of distinct atoms

 Group   1 Type O   : 19s6p3d2f contracted to 5s4p3d2f pattern {88111/3111/111/11}
 Group   2 Type H   : 6s3p2d contracted to 4s3p2d pattern {3111/111/11}

Atom   0O    basis set group =>   1
Atom   1H    basis set group =>   2
Atom   2H    basis set group =>   2
Atom   3O    basis set group =>   1
Atom   4H    basis set group =>   2
Atom   5H    basis set group =>   2
Atom   6O    basis set group =>   1
Atom   7H    basis set group =>   2
Atom   8H    basis set group =>   2
Atom   9O    basis set group =>   1
Atom  10H    basis set group =>   2
Atom  11H    basis set group =>   2
Atom  12O    basis set group =>   1
Atom  13H    basis set group =>   2
Atom  14H    basis set group =>   2
Atom  15O    basis set group =>   1
Atom  16H    basis set group =>   2
Atom  17H    basis set group =>   2
---------------------------------
AUXILIARY/C BASIS SET INFORMATION
---------------------------------
There are 2 groups of distinct atoms

 Group   1 Type O   : 8s6p5d3f1g contracted to 8s6p4d3f1g pattern {11111111/111111/2111/111/1}
 Group   2 Type H   : 4s3p2d contracted to 4s2p1d pattern {1111/21/2}

Atom   0O    basis set group =>   1
Atom   1H    basis set group =>   2
Atom   2H    basis set group =>   2
Atom   3O    basis set group =>   1
Atom   4H    basis set group =>   2
Atom   5H    basis set group =>   2
Atom   6O    basis set group =>   1
Atom   7H    basis set group =>   2
Atom   8H    basis set group =>   2
Atom   9O    basis set group =>   1
Atom  10H    basis set group =>   2
Atom  11H    basis set group =>   2
Atom  12O    basis set group =>   1
Atom  13H    basis set group =>   2
Atom  14H    basis set group =>   2
Atom  15O    basis set group =>   1
Atom  16H    basis set group =>   2
Atom  17H    basis set group =>   2
----------------------------------
AUXILIARY/JK BASIS SET INFORMATION
----------------------------------
There are 2 groups of distinct atoms

 Group   1 Type O   : 14s10p6d2f1g contracted to 10s8p4d2f1g pattern {5111111111/31111111/3111/11/1}
 Group   2 Type H   : 4s2p2d contracted to 2s2p2d pattern {31/11/11}

Atom   0O    basis set group =>   1
Atom   1H    basis set group =>   2
Atom   2H    basis set group =>   2
Atom   3O    basis set group =>   1
Atom   4H    basis set group =>   2
Atom   5H    basis set group =>   2
Atom   6O    basis set group =>   1
Atom   7H    basis set group =>   2
Atom   8H    basis set group =>   2
Atom   9O    basis set group =>   1
Atom  10H    basis set group =>   2
Atom  11H    basis set group =>   2
Atom  12O    basis set group =>   1
Atom  13H    basis set group =>   2
Atom  14H    basis set group =>   2
Atom  15O    basis set group =>   1
Atom  16H    basis set group =>   2
Atom  17H    basis set group =>   2


           ************************************************************
           *        Program running with 24 parallel MPI-processes    *
           *              working on a common directory               *
           ************************************************************
------------------------------------------------------------------------------
                           ORCA GTO INTEGRAL CALCULATION
                           -- RI-GTO INTEGRALS CHOSEN --
------------------------------------------------------------------------------

                         BASIS SET STATISTICS AND STARTUP INFO

Gaussian basis set:
 # of primitive gaussian shells          ...  312
 # of primitive gaussian functions       ...  696
 # of contracted shells                  ...  192
 # of contracted basis functions         ...  552
 Highest angular momentum                ...    3
 Maximum contraction depth               ...    8
Auxiliary gaussian basis set:
 # of primitive gaussian shells          ...  294
 # of primitive gaussian functions       ...  822
 # of contracted shells                  ...  222
 # of contracted aux-basis functions     ...  678
 Highest angular momentum                ...    4
 Maximum contraction depth               ...    5
Ratio of auxiliary to basis functions    ...  1.23
Integral package used                  ... LIBINT
 One Electron integrals                  ... done
 Ordering auxiliary basis shells         ... done
 Integral threshhold             Thresh  ...  2.500e-11
 Primitive cut-off               TCut    ...  2.500e-12
 Pre-screening matrix                    ... done
 Shell pair data                         ... 
 Ordering of the shell pairs             ... done (   0.003 sec) 17028 of 18528 pairs
 Determination of significant pairs      ... done (   0.000 sec)
 Creation of shell pair data             ... done (   0.002 sec)
 Storage of shell pair data              ... done (   0.002 sec)
 Shell pair data done in (   0.007 sec)
 Computing two index integrals           ... done
 Cholesky decomposition of the V-matrix  ... done


Timings:
 Total evaluation time                   ...   0.436 sec (  0.007 min)
 One electron matrix time                ...   0.109 sec (  0.002 min) = 25.1%
 Schwartz matrix evaluation time         ...   0.205 sec (  0.003 min) = 47.1%
 Two index repulsion integral time       ...   0.009 sec (  0.000 min) =  2.0%
 Cholesky decomposition of V             ...   0.080 sec (  0.001 min) = 18.3%
 Three index repulsion integral time     ...   0.000 sec (  0.000 min) =  0.0%



           ************************************************************
           *        Program running with 24 parallel MPI-processes    *
           *              working on a common directory               *
           ************************************************************
-------------------------------------------------------------------------------
                                 ORCA SCF
-------------------------------------------------------------------------------

------------
SCF SETTINGS
------------
Hamiltonian:
 Density Functional     Method          .... DFT(GTOs)
 Exchange Functional    Exchange        .... B88
   X-Alpha parameter    XAlpha          ....  0.666667
   Becke's b parameter  XBeta           ....  0.004200
 Correlation Functional Correlation     .... LYP
 LDA part of GGA corr.  LDAOpt          .... VWN-5
 Gradients option       PostSCFGGA      .... off
 Hybrid DFT is turned on
   Fraction HF Exchange ScalHFX         ....  0.710000
   Scaling of DF-GGA-X  ScalDFX         ....  0.290000
   Scaling of DF-GGA-C  ScalDFC         ....  0.540000
   Scaling of DF-LDA-C  ScalLDAC        ....  0.540000
   Perturbative correction              ....  1.000000
   Density functional embedding theory  .... OFF
 RI-approximation to the Coulomb term is turned on
   Number of auxiliary basis functions  .... 678
   RI-JK (J+K treated both via RI)      .... on


General Settings:
 Integral files         IntName         .... 07_H2O_6_book
 Hartree-Fock type      HFTyp           .... RHF
 Total Charge           Charge          ....    0
 Multiplicity           Mult            ....    1
 Number of Electrons    NEL             ....   60
 Basis Dimension        Dim             ....  552
 Nuclear Repulsion      ENuc            ....    284.3088335758 Eh

Convergence Acceleration:
 DIIS                   CNVDIIS         .... on
   Start iteration      DIISMaxIt       ....    12
   Startup error        DIISStart       ....  0.200000
   # of expansion vecs  DIISMaxEq       ....     5
   Bias factor          DIISBfac        ....   1.050
   Max. coefficient     DIISMaxC        ....  10.000
 Newton-Raphson         CNVNR           .... off
 SOSCF                  CNVSOSCF        .... on
   Start iteration      SOSCFMaxIt      ....   150
   Startup grad/error   SOSCFStart      ....  0.003300
 Level Shifting         CNVShift        .... on
   Level shift para.    LevelShift      ....    0.2500
   Turn off err/grad.   ShiftErr        ....    0.0010
 Zerner damping         CNVZerner       .... off
 Static damping         CNVDamp         .... on
   Fraction old density DampFac         ....    0.7000
   Max. Damping (<1)    DampMax         ....    0.9800
   Min. Damping (>=0)   DampMin         ....    0.0000
   Turn off err/grad.   DampErr         ....    0.1000
 Fernandez-Rico         CNVRico         .... off

SCF Procedure:
 Maximum # iterations   MaxIter         ....   125
 SCF integral mode      SCFMode         .... Direct
   Integral package                     .... LIBINT
 Reset frequency        DirectResetFreq ....    20
 Integral Threshold     Thresh          ....  2.500e-11 Eh
 Primitive CutOff       TCut            ....  2.500e-12 Eh

Convergence Tolerance:
 Convergence Check Mode ConvCheckMode   .... Total+1el-Energy
 Convergence forced     ConvForced      .... 0
 Energy Change          TolE            ....  1.000e-08 Eh
 1-El. energy change                    ....  1.000e-05 Eh
 Orbital Gradient       TolG            ....  1.000e-05
 Orbital Rotation angle TolX            ....  1.000e-05
 DIIS Error             TolErr          ....  5.000e-07


Diagonalization of the overlap matrix:
Smallest eigenvalue                        ... 3.910e-05
Time for diagonalization                   ...    0.064 sec
Threshold for overlap eigenvalues          ... 1.000e-08
Number of eigenvalues below threshold      ... 0
Time for construction of square roots      ...    0.044 sec
Total time needed                          ...    0.109 sec

-------------------
DFT GRID GENERATION
-------------------

General Integration Accuracy     IntAcc      ...  4.670
Radial Grid Type                 RadialGrid  ... Gauss-Chebyshev
Angular Grid (max. acc.)         AngularGrid ... Lebedev-302
Angular grid pruning method      GridPruning ... 3 (G Style)
Weight generation scheme         WeightScheme... Becke
Basis function cutoff            BFCut       ...    1.0000e-11
Integration weight cutoff        WCut        ...    1.0000e-14
Grids for H and He will be reduced by one unit

# of grid points (after initial pruning)     ...  78000 (   0.0 sec)
# of grid points (after weights+screening)   ...  72363 (   0.0 sec)
nearest neighbour list constructed           ...    0.0 sec
Grid point re-assignment to atoms done       ...    0.0 sec
Grid point division into batches done        ...    0.2 sec
Reduced shell lists constructed in    0.3 sec

Total number of grid points                  ...    72363
Total number of batches                      ...     1140
Average number of points per batch           ...       63
Average number of grid points per atom       ...     4020
Average number of shells per batch           ...   142.39 (74.16%)
Average number of basis functions per batch  ...   398.02 (72.11%)
Average number of large shells per batch     ...   115.82 (81.34%)
Average number of large basis fcns per batch ...   317.00 (79.64%)
Average number of aux-shells per batch       ...   142.39 (64.14%)
Average number of aux functions per batch    ...   398.02 (58.71%)
Maximum spatial batch extension              ...   2.10,  2.67,  2.00 au
Average spatial batch extension              ...   0.04,  0.04,  0.04 au

Time for grid setup =    0.363 sec

------------------------------
INITIAL GUESS: MODEL POTENTIAL
------------------------------
Loading Hartree-Fock densities                     ... done
Calculating cut-offs                               ... done
Setting up the integral package                    ... done
Initializing the effective Hamiltonian             ... done
Starting the Coulomb interaction                   ... done (   0.0 sec)
Reading the grid                                   ... done
Mapping shells                                     ... done
Starting the XC term evaluation                    ... done (   0.1 sec)
  promolecular density results
     # of electrons  =     59.994928870
     EX              =    -52.750196841
     EC              =     -0.247364305
     EX+EC           =    -52.997561146
Transforming the Hamiltonian                       ... done (   0.0 sec)
Diagonalizing the Hamiltonian                      ... done (   0.0 sec)
Back transforming the eigenvectors                 ... done (   0.0 sec)
Now organizing SCF variables                       ... done
                      ------------------
                      INITIAL GUESS DONE (   0.7 sec)
                      ------------------
--------------
SCF ITERATIONS
--------------
ITER       Energy         Delta-E        Max-DP      RMS-DP      [F,P]     Damp
  0   -457.1296944608   0.000000000000 0.03758950  0.00052064  0.3469410 0.7000
  1   -456.6803782485   0.449316212349 0.03735961  0.00054691  0.2827358 0.7000
                               ***Turning on DIIS***
  2   -456.8045840482  -0.124205799759 0.01573187  0.00028564  0.1338844 0.7000
  3   -457.1473206961  -0.342736647849 0.02792427  0.00025818  0.0414501 0.0000
  4   -457.5695034617  -0.422182765622 0.00918437  0.00016547  0.0685758 0.0000
  5   -457.5867689218  -0.017265460053 0.00732266  0.00011162  0.0365734 0.0000
  6   -457.5921286781  -0.005359756292 0.00420349  0.00006314  0.0160861 0.0000
  7   -457.5933418495  -0.001213171401 0.00124386  0.00002174  0.0049359 0.0000
                      *** Initiating the SOSCF procedure ***
                           *** Shutting down DIIS ***
                      *** Re-Reading the Fockian *** 
                      *** Removing any level shift *** 
ITER      Energy       Delta-E        Grad      Rot      Max-DP    RMS-DP
  8   -457.59346507  -0.0001232232  0.000143  0.000143  0.000416  0.000007
  9   -457.59347085  -0.0000057742  0.000024  0.000048  0.000124  0.000002
 10   -457.59347098  -0.0000001375  0.000023  0.000027  0.000042  0.000001
                  ***Gradient check signals convergence***
              ***Rediagonalizing the Fockian in SOSCF/NRSCF***

               *****************************************************
               *                     SUCCESS                       *
               *           SCF CONVERGED AFTER  11 CYCLES          *
               *****************************************************


----------------
TOTAL SCF ENERGY
----------------

Total Energy       :         -457.59347105 Eh          -12451.75138 eV

Components:
Nuclear Repulsion  :          284.30883358 Eh            7736.43667 eV
Electronic Energy  :         -741.90230462 Eh          -20188.18806 eV
One Electron Energy:        -1196.96559037 Eh          -32571.08960 eV
Two Electron Energy:          455.06328574 Eh           12382.90154 eV

Virial components:
Potential Energy   :         -913.71055287 Eh          -24863.32817 eV
Kinetic Energy     :          456.11708182 Eh           12411.57679 eV
Virial Ratio       :            2.00323686


DFT components:
N(Alpha)           :       30.000133113152 electrons
N(Beta)            :       30.000133113152 electrons
N(Total)           :       60.000266226303 electrons
E(X)               :      -15.637583986604 Eh       
E(C)               :       -1.122959246125 Eh       
E(XC)              :      -16.760543232729 Eh       
DFET-embed. en.    :        0.000000000000 Eh       

---------------
SCF CONVERGENCE
---------------

  Last Energy change         ...   -6.4599e-08  Tolerance :   1.0000e-08
  Last MAX-Density change    ...    2.0229e-05  Tolerance :   1.0000e-07
  Last RMS-Density change    ...    1.7984e-07  Tolerance :   5.0000e-09
  Last Orbital Gradient      ...    1.9058e-06  Tolerance :   1.0000e-05
  Last Orbital Rotation      ...    1.5116e-06  Tolerance :   1.0000e-05

             **** THE GBW FILE WAS UPDATED (07_H2O_6_book.gbw) ****
             **** DENSITY FILE WAS UPDATED (07_H2O_6_book.scfp) ****
             **** ENERGY FILE WAS UPDATED (07_H2O_6_book.en.tmp) ****
             **** THE GBW FILE WAS UPDATED (07_H2O_6_book.gbw) ****
             **** DENSITY FILE WAS UPDATED (07_H2O_6_book.scfp) ****
----------------
ORBITAL ENERGIES
----------------

  NO   OCC          E(Eh)            E(eV) 
   0   2.0000     -20.065181      -546.0013 
   1   2.0000     -20.054898      -545.7215 
   2   2.0000     -20.053218      -545.6758 
   3   2.0000     -20.042279      -545.3781 
   4   2.0000     -20.042060      -545.3722 
   5   2.0000     -20.028757      -545.0102 
   6   2.0000      -1.253941       -34.1215 
   7   2.0000      -1.239243       -33.7215 
   8   2.0000      -1.234021       -33.5794 
   9   2.0000      -1.225192       -33.3392 
  10   2.0000      -1.220495       -33.2113 
  11   2.0000      -1.204988       -32.7894 
  12   2.0000      -0.677884       -18.4462 
  13   2.0000      -0.666341       -18.1321 
  14   2.0000      -0.662777       -18.0351 
  15   2.0000      -0.651924       -17.7398 
  16   2.0000      -0.647861       -17.6292 
  17   2.0000      -0.634113       -17.2551 
  18   2.0000      -0.568066       -15.4579 
  19   2.0000      -0.541227       -14.7275 
  20   2.0000      -0.528971       -14.3940 
  21   2.0000      -0.516678       -14.0595 
  22   2.0000      -0.503659       -13.7053 
  23   2.0000      -0.482072       -13.1178 
  24   2.0000      -0.458228       -12.4690 
  25   2.0000      -0.448116       -12.1938 
  26   2.0000      -0.447628       -12.1806 
  27   2.0000      -0.437218       -11.8973 
  28   2.0000      -0.433088       -11.7849 
  29   2.0000      -0.423540       -11.5251 
  30   0.0000       0.007629         0.2076 
  31   0.0000       0.024820         0.6754 
  32   0.0000       0.028709         0.7812 
  33   0.0000       0.029452         0.8014 
  34   0.0000       0.040225         1.0946 
  35   0.0000       0.057033         1.5520 
  36   0.0000       0.060199         1.6381 
  37   0.0000       0.063706         1.7335 
  38   0.0000       0.067159         1.8275 
  39   0.0000       0.075741         2.0610 
  40   0.0000       0.076958         2.0941 
  41   0.0000       0.092512         2.5174 
  42   0.0000       0.112213         3.0535 
  43   0.0000       0.128772         3.5041 
  44   0.0000       0.134206         3.6519 
  45   0.0000       0.134932         3.6717 
  46   0.0000       0.136981         3.7275 
  47   0.0000       0.139524         3.7966 
  48   0.0000       0.147326         4.0089 
  49   0.0000       0.156023         4.2456 
  50   0.0000       0.159499         4.3402 
  51   0.0000       0.171379         4.6635 
  52   0.0000       0.180396         4.9088 
  53   0.0000       0.183938         5.0052 
  54   0.0000       0.191323         5.2062 
  55   0.0000       0.192644         5.2421 
  56   0.0000       0.193969         5.2782 
  57   0.0000       0.200850         5.4654 
  58   0.0000       0.204934         5.5765 
  59   0.0000       0.210163         5.7188 
  60   0.0000       0.214843         5.8462 
  61   0.0000       0.221956         6.0397 
  62   0.0000       0.223849         6.0912 
  63   0.0000       0.230988         6.2855 
  64   0.0000       0.233187         6.3453 
  65   0.0000       0.244664         6.6576 
  66   0.0000       0.259146         7.0517 
  67   0.0000       0.268882         7.3167 
  68   0.0000       0.273809         7.4507 
  69   0.0000       0.281038         7.6474 
  70   0.0000       0.288247         7.8436 
  71   0.0000       0.299390         8.1468 
  72   0.0000       0.308851         8.4043 
  73   0.0000       0.320175         8.7124 
  74   0.0000       0.331023         9.0076 
  75   0.0000       0.339474         9.2376 
  76   0.0000       0.345756         9.4085 
  77   0.0000       0.348112         9.4726 
  78   0.0000       0.351468         9.5639 
  79   0.0000       0.357300         9.7226 
  80   0.0000       0.365171         9.9368 
  81   0.0000       0.373132        10.1534 
  82   0.0000       0.375802        10.2261 
  83   0.0000       0.382616        10.4115 
  84   0.0000       0.389322        10.5940 
  85   0.0000       0.395531        10.7629 
  86   0.0000       0.397815        10.8251 
  87   0.0000       0.404105        10.9962 
  88   0.0000       0.406331        11.0568 
  89   0.0000       0.406874        11.0716 
  90   0.0000       0.410886        11.1808 
  91   0.0000       0.419554        11.4166 
  92   0.0000       0.422508        11.4970 
  93   0.0000       0.424901        11.5621 
  94   0.0000       0.431241        11.7347 
  95   0.0000       0.436156        11.8684 
  96   0.0000       0.439223        11.9519 
  97   0.0000       0.450009        12.2454 
  98   0.0000       0.458886        12.4869 
  99   0.0000       0.460203        12.5228 
 100   0.0000       0.463769        12.6198 
 101   0.0000       0.468120        12.7382 
 102   0.0000       0.475216        12.9313 
 103   0.0000       0.480151        13.0656 
 104   0.0000       0.484299        13.1784 
 105   0.0000       0.501537        13.6475 
 106   0.0000       0.506727        13.7887 
 107   0.0000       0.525270        14.2933 
 108   0.0000       0.530326        14.4309 
 109   0.0000       0.541566        14.7367 
 110   0.0000       0.550552        14.9813 
 111   0.0000       0.552751        15.0411 
 112   0.0000       0.568317        15.4647 
 113   0.0000       0.587127        15.9765 
 114   0.0000       0.601521        16.3682 
 115   0.0000       0.610571        16.6145 
 116   0.0000       0.621205        16.9038 
 117   0.0000       0.625990        17.0341 
 118   0.0000       0.641136        17.4462 
 119   0.0000       0.651254        17.7215 
 120   0.0000       0.675287        18.3755 
 121   0.0000       0.694828        18.9072 
 122   0.0000       0.697207        18.9720 
 123   0.0000       0.711296        19.3554 
 124   0.0000       0.722470        19.6594 
 125   0.0000       0.726110        19.7585 
 126   0.0000       0.731597        19.9078 
 127   0.0000       0.739484        20.1224 
 128   0.0000       0.748301        20.3623 
 129   0.0000       0.760565        20.6960 
 130   0.0000       0.763556        20.7774 
 131   0.0000       0.767651        20.8888 
 132   0.0000       0.776608        21.1326 
 133   0.0000       0.785757        21.3815 
 134   0.0000       0.790049        21.4983 
 135   0.0000       0.799446        21.7540 
 136   0.0000       0.805837        21.9279 
 137   0.0000       0.813773        22.1439 
 138   0.0000       0.817627        22.2488 
 139   0.0000       0.825361        22.4592 
 140   0.0000       0.840449        22.8698 
 141   0.0000       0.842686        22.9307 
 142   0.0000       0.855002        23.2658 
 143   0.0000       0.859930        23.3999 
 144   0.0000       0.865740        23.5580 
 145   0.0000       0.873744        23.7758 
 146   0.0000       0.882555        24.0155 
 147   0.0000       0.889865        24.2145 
 148   0.0000       0.895098        24.3569 
 149   0.0000       0.900868        24.5139 
 150   0.0000       0.911781        24.8108 
 151   0.0000       0.918813        25.0022 
 152   0.0000       0.920127        25.0379 
 153   0.0000       0.927558        25.2401 
 154   0.0000       0.930600        25.3229 
 155   0.0000       0.934576        25.4311 
 156   0.0000       0.936810        25.4919 
 157   0.0000       0.943472        25.6732 
 158   0.0000       0.953794        25.9540 
 159   0.0000       0.955631        26.0040 
 160   0.0000       0.964854        26.2550 
 161   0.0000       0.969153        26.3720 
 162   0.0000       0.982295        26.7296 
 163   0.0000       0.985836        26.8259 
 164   0.0000       0.994959        27.0742 
 165   0.0000       0.997392        27.1404 
 166   0.0000       1.003046        27.2943 
 167   0.0000       1.008633        27.4463 
 168   0.0000       1.014823        27.6147 
 169   0.0000       1.016728        27.6666 
 170   0.0000       1.032637        28.0995 
 171   0.0000       1.041054        28.3285 
 172   0.0000       1.049468        28.5575 
 173   0.0000       1.052143        28.6303 
 174   0.0000       1.060180        28.8490 
 175   0.0000       1.089007        29.6334 
 176   0.0000       1.094900        29.7937 
 177   0.0000       1.107451        30.1353 
 178   0.0000       1.113456        30.2987 
 179   0.0000       1.115505        30.3544 
 180   0.0000       1.120306        30.4851 
 181   0.0000       1.128800        30.7162 
 182   0.0000       1.144367        31.1398 
 183   0.0000       1.149153        31.2701 
 184   0.0000       1.160218        31.5711 
 185   0.0000       1.166945        31.7542 
 186   0.0000       1.186668        32.2909 
 187   0.0000       1.191414        32.4200 
 188   0.0000       1.192418        32.4474 
 189   0.0000       1.196293        32.5528 
 190   0.0000       1.205454        32.8021 
 191   0.0000       1.215185        33.0669 
 192   0.0000       1.219527        33.1850 
 193   0.0000       1.224440        33.3187 
 194   0.0000       1.236657        33.6511 
 195   0.0000       1.239611        33.7315 
 196   0.0000       1.247352        33.9422 
 197   0.0000       1.269135        34.5349 
 198   0.0000       1.275438        34.7064 
 199   0.0000       1.281292        34.8657 
 200   0.0000       1.288786        35.0697 
 201   0.0000       1.301560        35.4173 
 202   0.0000       1.314499        35.7693 
 203   0.0000       1.319661        35.9098 
 204   0.0000       1.331701        36.2374 
 205   0.0000       1.337676        36.4000 
 206   0.0000       1.356187        36.9037 
 207   0.0000       1.358947        36.9788 
 208   0.0000       1.365931        37.1689 
 209   0.0000       1.382781        37.6274 
 210   0.0000       1.398714        38.0609 
 211   0.0000       1.402387        38.1609 
 212   0.0000       1.411521        38.4094 
 213   0.0000       1.433920        39.0189 
 214   0.0000       1.440014        39.1848 
 215   0.0000       1.448497        39.4156 
 216   0.0000       1.460390        39.7392 
 217   0.0000       1.466574        39.9075 
 218   0.0000       1.486787        40.4575 
 219   0.0000       1.492927        40.6246 
 220   0.0000       1.497293        40.7434 
 221   0.0000       1.508086        41.0371 
 222   0.0000       1.511165        41.1209 
 223   0.0000       1.517841        41.3026 
 224   0.0000       1.560476        42.4627 
 225   0.0000       1.565368        42.5958 
 226   0.0000       1.572049        42.7776 
 227   0.0000       1.591833        43.3160 
 228   0.0000       1.594686        43.3936 
 229   0.0000       1.603625        43.6369 
 230   0.0000       1.613120        43.8952 
 231   0.0000       1.633685        44.4548 
 232   0.0000       1.647800        44.8389 
 233   0.0000       1.649406        44.8826 
 234   0.0000       1.667236        45.3678 
 235   0.0000       1.677713        45.6529 
 236   0.0000       1.687143        45.9095 
 237   0.0000       1.701182        46.2915 
 238   0.0000       1.715052        46.6689 
 239   0.0000       1.727142        46.9979 
 240   0.0000       1.728918        47.0463 
 241   0.0000       1.742483        47.4154 
 242   0.0000       1.745955        47.5099 
 243   0.0000       1.757505        47.8241 
 244   0.0000       1.775446        48.3123 
 245   0.0000       1.786206        48.6051 
 246   0.0000       1.796172        48.8763 
 247   0.0000       1.805587        49.1325 
 248   0.0000       1.820882        49.5487 
 249   0.0000       1.849868        50.3375 
 250   0.0000       1.867441        50.8157 
 251   0.0000       1.877490        51.0891 
 252   0.0000       1.903182        51.7882 
 253   0.0000       1.921786        52.2945 
 254   0.0000       1.926166        52.4136 
 255   0.0000       1.943462        52.8843 
 256   0.0000       1.950535        53.0767 
 257   0.0000       1.959750        53.3275 
 258   0.0000       1.968612        53.5687 
 259   0.0000       1.972438        53.6728 
 260   0.0000       1.997042        54.3423 
 261   0.0000       2.003088        54.5068 
 262   0.0000       2.044844        55.6430 
 263   0.0000       2.051368        55.8205 
 264   0.0000       2.078056        56.5468 
 265   0.0000       2.094214        56.9865 
 266   0.0000       2.129493        57.9465 
 267   0.0000       2.147494        58.4363 
 268   0.0000       2.205888        60.0253 
 269   0.0000       2.216586        60.3164 
 270   0.0000       2.269347        61.7521 
 271   0.0000       2.282576        62.1121 
 272   0.0000       2.286249        62.2120 
 273   0.0000       2.304067        62.6968 
 274   0.0000       2.322416        63.1961 
 275   0.0000       2.344092        63.7860 
 276   0.0000       2.347238        63.8716 
 277   0.0000       2.355307        64.0912 
 278   0.0000       2.363221        64.3065 
 279   0.0000       2.377024        64.6821 
 280   0.0000       2.383539        64.8594 
 281   0.0000       2.389088        65.0104 
 282   0.0000       2.403831        65.4116 
 283   0.0000       2.405923        65.4685 
 284   0.0000       2.433396        66.2161 
 285   0.0000       2.443585        66.4933 
 286   0.0000       2.460348        66.9495 
 287   0.0000       2.463958        67.0477 
 288   0.0000       2.469923        67.2100 
 289   0.0000       2.478027        67.4305 
 290   0.0000       2.490674        67.7747 
 291   0.0000       2.499397        68.0120 
 292   0.0000       2.509911        68.2982 
 293   0.0000       2.514745        68.4297 
 294   0.0000       2.534194        68.9589 
 295   0.0000       2.538624        69.0795 
 296   0.0000       2.549612        69.3785 
 297   0.0000       2.562698        69.7346 
 298   0.0000       2.573204        70.0205 
 299   0.0000       2.587499        70.4094 
 300   0.0000       2.605826        70.9081 
 301   0.0000       2.619913        71.2914 
 302   0.0000       2.629901        71.5632 
 303   0.0000       2.643818        71.9419 
 304   0.0000       2.653100        72.1945 
 305   0.0000       2.666468        72.5583 
 306   0.0000       2.678143        72.8760 
 307   0.0000       2.686752        73.1102 
 308   0.0000       2.706127        73.6374 
 309   0.0000       2.720060        74.0166 
 310   0.0000       2.732396        74.3523 
 311   0.0000       2.742965        74.6399 
 312   0.0000       2.744813        74.6901 
 313   0.0000       2.759659        75.0942 
 314   0.0000       2.773100        75.4599 
 315   0.0000       2.785664        75.8018 
 316   0.0000       2.791109        75.9499 
 317   0.0000       2.798650        76.1551 
 318   0.0000       2.825787        76.8936 
 319   0.0000       2.829111        76.9840 
 320   0.0000       2.850907        77.5771 
 321   0.0000       2.853006        77.6342 
 322   0.0000       2.869171        78.0741 
 323   0.0000       2.879648        78.3592 
 324   0.0000       2.887756        78.5798 
 325   0.0000       2.901457        78.9527 
 326   0.0000       2.928343        79.6843 
 327   0.0000       2.936158        79.8969 
 328   0.0000       2.949243        80.2530 
 329   0.0000       2.955089        80.4121 
 330   0.0000       2.968001        80.7634 
 331   0.0000       2.981471        81.1300 
 332   0.0000       2.991879        81.4132 
 333   0.0000       3.002710        81.7079 
 334   0.0000       3.026028        82.3424 
 335   0.0000       3.039636        82.7127 
 336   0.0000       3.051163        83.0264 
 337   0.0000       3.066344        83.4394 
 338   0.0000       3.082167        83.8700 
 339   0.0000       3.104679        84.4826 
 340   0.0000       3.119978        84.8989 
 341   0.0000       3.130887        85.1958 
 342   0.0000       3.145621        85.5967 
 343   0.0000       3.183811        86.6359 
 344   0.0000       3.194033        86.9141 
 345   0.0000       3.217569        87.5545 
 346   0.0000       3.239463        88.1503 
 347   0.0000       3.313927        90.1765 
 348   0.0000       3.773567       102.6840 
 349   0.0000       3.786478       103.0353 
 350   0.0000       3.795265       103.2744 
 351   0.0000       3.828443       104.1772 
 352   0.0000       3.851866       104.8146 
 353   0.0000       3.958615       107.7194 
 354   0.0000       3.979810       108.2961 
 355   0.0000       4.019863       109.3860 
 356   0.0000       4.023362       109.4812 
 357   0.0000       4.035853       109.8212 
 358   0.0000       4.046638       110.1146 
 359   0.0000       4.056699       110.3884 
 360   0.0000       4.061517       110.5195 
 361   0.0000       4.085027       111.1592 
 362   0.0000       4.093709       111.3955 
 363   0.0000       4.094660       111.4214 
 364   0.0000       4.110379       111.8491 
 365   0.0000       4.119541       112.0984 
 366   0.0000       4.162275       113.2613 
 367   0.0000       4.169349       113.4538 
 368   0.0000       4.173338       113.5623 
 369   0.0000       4.185755       113.9002 
 370   0.0000       4.198873       114.2571 
 371   0.0000       4.203575       114.3851 
 372   0.0000       4.213968       114.6679 
 373   0.0000       4.221350       114.8688 
 374   0.0000       4.222532       114.9009 
 375   0.0000       4.246931       115.5649 
 376   0.0000       4.257216       115.8447 
 377   0.0000       4.271177       116.2246 
 378   0.0000       4.273108       116.2772 
 379   0.0000       4.289617       116.7264 
 380   0.0000       4.304578       117.1335 
 381   0.0000       4.328527       117.7852 
 382   0.0000       4.346515       118.2747 
 383   0.0000       4.366269       118.8122 
 384   0.0000       4.395457       119.6065 
 385   0.0000       4.409175       119.9797 
 386   0.0000       4.415237       120.1447 
 387   0.0000       4.433580       120.6439 
 388   0.0000       4.437007       120.7371 
 389   0.0000       4.459957       121.3616 
 390   0.0000       4.465989       121.5257 
 391   0.0000       4.474045       121.7449 
 392   0.0000       4.491268       122.2136 
 393   0.0000       4.499188       122.4291 
 394   0.0000       4.508328       122.6778 
 395   0.0000       4.513035       122.8059 
 396   0.0000       4.523402       123.0880 
 397   0.0000       4.536560       123.4461 
 398   0.0000       4.563162       124.1699 
 399   0.0000       4.565824       124.2424 
 400   0.0000       4.576052       124.5207 
 401   0.0000       4.598281       125.1256 
 402   0.0000       4.604443       125.2933 
 403   0.0000       4.616543       125.6225 
 404   0.0000       4.636848       126.1750 
 405   0.0000       4.639129       126.2371 
 406   0.0000       4.644594       126.3858 
 407   0.0000       4.655307       126.6774 
 408   0.0000       4.671707       127.1236 
 409   0.0000       4.684314       127.4667 
 410   0.0000       4.694934       127.7556 
 411   0.0000       4.735444       128.8580 
 412   0.0000       4.744712       129.1102 
 413   0.0000       4.762836       129.6034 
 414   0.0000       4.794655       130.4692 
 415   0.0000       4.816419       131.0614 
 416   0.0000       4.829783       131.4251 
 417   0.0000       4.861173       132.2793 
 418   0.0000       4.886525       132.9691 
 419   0.0000       4.916663       133.7892 
 420   0.0000       4.936101       134.3181 
 421   0.0000       4.960113       134.9715 
 422   0.0000       4.970788       135.2620 
 423   0.0000       5.007788       136.2688 
 424   0.0000       5.012969       136.4098 
 425   0.0000       5.028168       136.8234 
 426   0.0000       5.060033       137.6905 
 427   0.0000       5.077668       138.1704 
 428   0.0000       5.096465       138.6819 
 429   0.0000       5.114619       139.1758 
 430   0.0000       5.147455       140.0694 
 431   0.0000       5.161573       140.4536 
 432   0.0000       5.170128       140.6863 
 433   0.0000       5.177180       140.8782 
 434   0.0000       5.205519       141.6494 
 435   0.0000       5.214764       141.9009 
 436   0.0000       5.228683       142.2797 
 437   0.0000       5.238773       142.5543 
 438   0.0000       5.250392       142.8704 
 439   0.0000       5.259022       143.1053 
 440   0.0000       5.262174       143.1910 
 441   0.0000       5.282745       143.7508 
 442   0.0000       5.290356       143.9579 
 443   0.0000       5.316904       144.6803 
 444   0.0000       5.348270       145.5338 
 445   0.0000       5.381184       146.4295 
 446   0.0000       5.393307       146.7594 
 447   0.0000       5.428776       147.7245 
 448   0.0000       5.447400       148.2313 
 449   0.0000       5.489165       149.3678 
 450   0.0000       5.512664       150.0072 
 451   0.0000       5.566335       151.4677 
 452   0.0000       5.603584       152.4813 
 453   0.0000       5.609981       152.6554 
 454   0.0000       5.651218       153.7775 
 455   0.0000       5.661807       154.0656 
 456   0.0000       5.719391       155.6325 
 457   0.0000       5.742474       156.2607 
 458   0.0000       5.778029       157.2282 
 459   0.0000       5.787849       157.4954 
 460   0.0000       5.852967       159.2673 
 461   0.0000       5.902213       160.6074 
 462   0.0000       6.237254       169.7243 
 463   0.0000       6.244928       169.9331 
 464   0.0000       6.292147       171.2180 
 465   0.0000       6.305186       171.5728 
 466   0.0000       6.325357       172.1217 
 467   0.0000       6.419935       174.6953 
 468   0.0000       6.420217       174.7030 
 469   0.0000       6.444785       175.3715 
 470   0.0000       6.454016       175.6227 
 471   0.0000       6.477193       176.2534 
 472   0.0000       6.508759       177.1123 
 473   0.0000       6.521675       177.4638 
 474   0.0000       6.715327       182.7333 
 475   0.0000       6.746911       183.5928 
 476   0.0000       6.756254       183.8470 
 477   0.0000       6.777147       184.4156 
 478   0.0000       6.783823       184.5972 
 479   0.0000       6.827586       185.7881 
 480   0.0000       6.846242       186.2957 
 481   0.0000       6.864856       186.8022 
 482   0.0000       6.880958       187.2404 
 483   0.0000       6.896948       187.6755 
 484   0.0000       6.933246       188.6632 
 485   0.0000       6.959146       189.3680 
 486   0.0000       7.029698       191.2878 
 487   0.0000       7.068689       192.3488 
 488   0.0000       7.073178       192.4710 
 489   0.0000       7.080802       192.6784 
 490   0.0000       7.085107       192.7956 
 491   0.0000       7.121423       193.7838 
 492   0.0000       7.124324       193.8627 
 493   0.0000       7.171721       195.1524 
 494   0.0000       7.199262       195.9019 
 495   0.0000       7.207316       196.1210 
 496   0.0000       7.210211       196.1998 
 497   0.0000       7.224440       196.5870 
 498   0.0000       7.238190       196.9612 
 499   0.0000       7.254260       197.3984 
 500   0.0000       7.264552       197.6785 
 501   0.0000       7.271551       197.8690 
 502   0.0000       7.278526       198.0587 
 503   0.0000       7.281736       198.1461 
 504   0.0000       7.291538       198.4128 
 505   0.0000       7.311582       198.9583 
 506   0.0000       7.317173       199.1104 
 507   0.0000       7.327801       199.3996 
 508   0.0000       7.336450       199.6349 
 509   0.0000       7.348322       199.9580 
 510   0.0000       7.360630       200.2929 
 511   0.0000       7.377396       200.7491 
 512   0.0000       7.390652       201.1099 
 513   0.0000       7.399807       201.3590 
 514   0.0000       7.409728       201.6290 
 515   0.0000       7.431788       202.2292 
 516   0.0000       7.441992       202.5069 
 517   0.0000       7.454485       202.8468 
 518   0.0000       7.467494       203.2008 
 519   0.0000       7.505608       204.2380 
 520   0.0000       7.538847       205.1425 
 521   0.0000       7.613934       207.1857 
 522   0.0000       7.653200       208.2542 
 523   0.0000       7.726043       210.2363 
 524   0.0000       7.730826       210.3665 
 525   0.0000       7.781032       211.7326 
 526   0.0000       7.819374       212.7760 
 527   0.0000       7.848525       213.5692 
 528   0.0000       7.858050       213.8284 
 529   0.0000       7.865550       214.0325 
 530   0.0000       7.869660       214.1443 
 531   0.0000       7.891815       214.7472 
 532   0.0000       7.899777       214.9639 
 533   0.0000       7.917133       215.4361 
 534   0.0000       7.948504       216.2898 
 535   0.0000       7.971734       216.9219 
 536   0.0000       7.995286       217.5628 
 537   0.0000       8.036153       218.6748 
 538   0.0000       8.059143       219.3004 
 539   0.0000       8.111083       220.7138 
 540   0.0000       8.792774       239.2636 
 541   0.0000       8.824671       240.1315 
 542   0.0000       8.827746       240.2152 
 543   0.0000       8.857144       241.0151 
 544   0.0000       8.893624       242.0078 
 545   0.0000       8.918352       242.6807 
 546   0.0000      16.115984       438.5382 
 547   0.0000      16.561069       450.6496 
 548   0.0000      16.843979       458.3480 
 549   0.0000      17.317935       471.2450 
 550   0.0000      17.531376       477.0530 
 551   0.0000      17.944354       488.2907 

                    ********************************
                    * MULLIKEN POPULATION ANALYSIS *
                    ********************************

-----------------------
MULLIKEN ATOMIC CHARGES
-----------------------
   0 O :   -0.565988
   1 H :    0.342361
   2 H :    0.160751
   3 O :   -0.587242
   4 H :    0.325837
   5 H :    0.293773
   6 O :   -0.486575
   7 H :    0.328893
   8 H :    0.168992
   9 O :   -0.473467
  10 H :    0.317243
  11 H :    0.161624
  12 O :   -0.446552
  13 H :    0.309459
  14 H :    0.148683
  15 O :   -0.460497
  16 H :    0.315921
  17 H :    0.146783
Sum of atomic charges:    0.0000000

--------------------------------
MULLIKEN REDUCED ORBITAL CHARGES
--------------------------------
  0 O s       :     3.987356  s :     3.987356
      pz      :     1.411718  p :     4.571142
      px      :     1.525919
      py      :     1.633505
      dz2     :     0.000313  d :     0.007466
      dxz     :     0.002076
      dyz     :    -0.000384
      dx2y2   :     0.004307
      dxy     :     0.001155
      f0      :    -0.000047  f :     0.000024
      f+1     :    -0.000005
      f-1     :     0.000093
      f+2     :    -0.000135
      f-2     :     0.000111
      f+3     :     0.000017
      f-3     :    -0.000011
  1 H s       :     0.545128  s :     0.545128
      pz      :     0.025902  p :     0.062434
      px      :    -0.006444
      py      :     0.042977
      dz2     :     0.013187  d :     0.050077
      dxz     :     0.008018
      dyz     :     0.008309
      dx2y2   :     0.005390
      dxy     :     0.015173
  2 H s       :     0.711519  s :     0.711519
      pz      :     0.029717  p :     0.109514
      px      :     0.036350
      py      :     0.043447
      dz2     :     0.006633  d :     0.018216
      dxz     :     0.005673
      dyz     :     0.001854
      dx2y2   :     0.002110
      dxy     :     0.001946
  3 O s       :     3.979983  s :     3.979983
      pz      :     1.714656  p :     4.593716
      px      :     1.499593
      py      :     1.379466
      dz2     :     0.001589  d :     0.013387
      dxz     :    -0.000068
      dyz     :     0.000740
      dx2y2   :     0.010003
      dxy     :     0.001123
      f0      :     0.000173  f :     0.000156
      f+1     :     0.000032
      f-1     :     0.000178
      f+2     :    -0.000063
      f-2     :     0.000015
      f+3     :    -0.000001
      f-3     :    -0.000178
  4 H s       :     0.555281  s :     0.555281
      pz      :     0.050950  p :     0.090036
      px      :     0.042513
      py      :    -0.003427
      dz2     :     0.001980  d :     0.028846
      dxz     :     0.001050
      dyz     :     0.012754
      dx2y2   :     0.000395
      dxy     :     0.012667
  5 H s       :     0.565711  s :     0.565711
      pz      :     0.036826  p :     0.099103
      px      :     0.031922
      py      :     0.030355
      dz2     :     0.012584  d :     0.041413
      dxz     :     0.006876
      dyz     :     0.002722
      dx2y2   :     0.011780
      dxy     :     0.007451
  6 O s       :     3.910216  s :     3.910216
      pz      :     1.388384  p :     4.564273
      px      :     1.501220
      py      :     1.674668
      dz2     :     0.000534  d :     0.011767
      dxz     :     0.002541
      dyz     :     0.002881
      dx2y2   :     0.004177
      dxy     :     0.001635
      f0      :    -0.000017  f :     0.000319
      f+1     :     0.000019
      f-1     :     0.000212
      f+2     :     0.000148
      f-2     :     0.000035
      f+3     :    -0.000049
      f-3     :    -0.000030
  7 H s       :     0.567495  s :     0.567495
      pz      :     0.030070  p :     0.065750
      px      :    -0.018621
      py      :     0.054300
      dz2     :     0.008706  d :     0.037863
      dxz     :     0.006832
      dyz     :     0.004359
      dx2y2   :     0.007601
      dxy     :     0.010364
  8 H s       :     0.709342  s :     0.709342
      pz      :     0.025146  p :     0.104639
      px      :     0.034556
      py      :     0.044937
      dz2     :     0.005446  d :     0.017026
      dxz     :     0.004856
      dyz     :     0.002952
      dx2y2   :     0.002365
      dxy     :     0.001408
  9 O s       :     3.895910  s :     3.895910
      pz      :     1.725873  p :     4.561764
      px      :     1.471213
      py      :     1.364677
      dz2     :     0.003037  d :     0.015441
      dxz     :     0.000649
      dyz     :     0.000587
      dx2y2   :     0.009826
      dxy     :     0.001341
      f0      :     0.000177  f :     0.000353
      f+1     :     0.000067
      f-1     :     0.000195
      f+2     :     0.000046
      f-2     :     0.000026
      f+3     :     0.000006
      f-3     :    -0.000163
 10 H s       :     0.572312  s :     0.572312
      pz      :     0.048100  p :     0.069099
      px      :     0.034315
      py      :    -0.013316
      dz2     :     0.001457  d :     0.041346
      dxz     :     0.000329
      dyz     :     0.018652
      dx2y2   :     0.003897
      dxy     :     0.017011
 11 H s       :     0.710989  s :     0.710989
      pz      :     0.042694  p :     0.109835
      px      :     0.032928
      py      :     0.034214
      dz2     :     0.005617  d :     0.017552
      dxz     :     0.002805
      dyz     :     0.001354
      dx2y2   :     0.004860
      dxy     :     0.002914
 12 O s       :     3.883959  s :     3.883959
      pz      :     1.353371  p :     4.550407
      px      :     1.811424
      py      :     1.385613
      dz2     :     0.004831  d :     0.012017
      dxz     :     0.000068
      dyz     :     0.001108
      dx2y2   :     0.005171
      dxy     :     0.000838
      f0      :     0.000137  f :     0.000168
      f+1     :     0.000160
      f-1     :    -0.000231
      f+2     :    -0.000087
      f-2     :     0.000019
      f+3     :     0.000008
      f-3     :     0.000162
 13 H s       :     0.571037  s :     0.571037
      pz      :     0.026360  p :     0.073326
      px      :     0.050882
      py      :    -0.003916
      dz2     :     0.001526  d :     0.046178
      dxz     :     0.000299
      dyz     :     0.015684
      dx2y2   :     0.004475
      dxy     :     0.024194
 14 H s       :     0.719750  s :     0.719750
      pz      :     0.020587  p :     0.112605
      px      :     0.056813
      py      :     0.035205
      dz2     :     0.003657  d :     0.018962
      dxz     :     0.009291
      dyz     :     0.003147
      dx2y2   :     0.001592
      dxy     :     0.001276
 15 O s       :     3.886360  s :     3.886360
      pz      :     1.609355  p :     4.560319
      px      :     1.312898
      py      :     1.638065
      dz2     :     0.000216  d :     0.013630
      dxz     :     0.007600
      dyz     :     0.002496
      dx2y2   :     0.001477
      dxy     :     0.001841
      f0      :     0.000087  f :     0.000188
      f+1     :     0.000003
      f-1     :    -0.000030
      f+2     :    -0.000016
      f-2     :     0.000241
      f+3     :     0.000070
      f-3     :    -0.000168
 16 H s       :     0.573214  s :     0.573214
      pz      :     0.019215  p :     0.061937
      px      :     0.002825
      py      :     0.039896
      dz2     :     0.009251  d :     0.048928
      dxz     :     0.007899
      dyz     :     0.004635
      dx2y2   :     0.007608
      dxy     :     0.019535
 17 H s       :     0.723438  s :     0.723438
      pz      :     0.034613  p :     0.111710
      px      :     0.032857
      py      :     0.044240
      dz2     :     0.004166  d :     0.018069
      dxz     :     0.002777
      dyz     :     0.001740
      dx2y2   :     0.006825
      dxy     :     0.002561


                     *******************************
                     * LOEWDIN POPULATION ANALYSIS *
                     *******************************

----------------------
LOEWDIN ATOMIC CHARGES
----------------------
   0 O :    1.145543
   1 H :   -0.655486
   2 H :   -0.427914
   3 O :    1.137624
   4 H :   -0.578943
   5 H :   -0.624847
   6 O :    1.117041
   7 H :   -0.648965
   8 H :   -0.458567
   9 O :    1.106094
  10 H :   -0.657086
  11 H :   -0.464429
  12 O :    1.125411
  13 H :   -0.664618
  14 H :   -0.449122
  15 O :    1.118650
  16 H :   -0.666751
  17 H :   -0.453636

-------------------------------
LOEWDIN REDUCED ORBITAL CHARGES
-------------------------------
  0 O s       :     2.928959  s :     2.928959
      pz      :     1.217953  p :     3.793973
      px      :     1.272995
      py      :     1.303025
      dz2     :     0.012121  d :     0.112809
      dxz     :     0.033804
      dyz     :     0.025492
      dx2y2   :     0.036446
      dxy     :     0.004946
      f0      :     0.001993  f :     0.018715
      f+1     :     0.001097
      f-1     :     0.004264
      f+2     :     0.006159
      f-2     :     0.001223
      f+3     :     0.002852
      f-3     :     0.001127
  1 H s       :     0.525887  s :     0.525887
      pz      :     0.185513  p :     0.616199
      px      :     0.294882
      py      :     0.135805
      dz2     :     0.095475  d :     0.513400
      dxz     :     0.144398
      dyz     :     0.048652
      dx2y2   :     0.116518
      dxy     :     0.108357
  2 H s       :     0.575154  s :     0.575154
      pz      :     0.192245  p :     0.511004
      px      :     0.137006
      py      :     0.181753
      dz2     :     0.097163  d :     0.341756
      dxz     :     0.075275
      dyz     :     0.085423
      dx2y2   :     0.040260
      dxy     :     0.043636
  3 O s       :     2.938797  s :     2.938797
      pz      :     1.338870  p :     3.806038
      px      :     1.249760
      py      :     1.217409
      dz2     :     0.008030  d :     0.099388
      dxz     :     0.028521
      dyz     :     0.007410
      dx2y2   :     0.048550
      dxy     :     0.006878
      f0      :     0.002598  f :     0.018153
      f+1     :     0.000649
      f-1     :     0.001631
      f+2     :     0.005021
      f-2     :     0.000653
      f+3     :     0.002621
      f-3     :     0.004979
  4 H s       :     0.552408  s :     0.552408
      pz      :     0.153104  p :     0.575756
      px      :     0.131295
      py      :     0.291357
      dz2     :     0.052528  d :     0.450778
      dxz     :     0.008891
      dyz     :     0.129115
      dx2y2   :     0.130442
      dxy     :     0.129803
  5 H s       :     0.544333  s :     0.544333
      pz      :     0.193900  p :     0.598083
      px      :     0.275583
      py      :     0.128601
      dz2     :     0.076907  d :     0.482431
      dxz     :     0.147574
      dyz     :     0.038075
      dx2y2   :     0.115687
      dxy     :     0.104188
  6 O s       :     2.952510  s :     2.952510
      pz      :     1.220595  p :     3.817980
      px      :     1.284806
      py      :     1.312579
      dz2     :     0.017764  d :     0.095061
      dxz     :     0.016409
      dyz     :     0.024699
      dx2y2   :     0.030753
      dxy     :     0.005436
      f0      :     0.001724  f :     0.017408
      f+1     :     0.000199
      f-1     :     0.006290
      f+2     :     0.003537
      f-2     :     0.000882
      f+3     :     0.002298
      f-3     :     0.002479
  7 H s       :     0.545989  s :     0.545989
      pz      :     0.169277  p :     0.607163
      px      :     0.293345
      py      :     0.144541
      dz2     :     0.081855  d :     0.495813
      dxz     :     0.144413
      dyz     :     0.034298
      dx2y2   :     0.123129
      dxy     :     0.112118
  8 H s       :     0.580825  s :     0.580825
      pz      :     0.212726  p :     0.529052
      px      :     0.140481
      py      :     0.175844
      dz2     :     0.104802  d :     0.348690
      dxz     :     0.090462
      dyz     :     0.089893
      dx2y2   :     0.032608
      dxy     :     0.030925
  9 O s       :     2.958383  s :     2.958383
      pz      :     1.355484  p :     3.825560
      px      :     1.249851
      py      :     1.220225
      dz2     :     0.009551  d :     0.092956
      dxz     :     0.023398
      dyz     :     0.004441
      dx2y2   :     0.044083
      dxy     :     0.011483
[...]
      1      -0.000154   0.000792   0.000501   0.000696   0.000236   0.000500
      2      -0.018827  -0.020192  -0.009733   0.002548   0.002797   0.001576
      3      -0.522657  -0.577020  -0.287886   0.071123   0.065911   0.031485
      4       0.018754   0.023467   0.012844  -0.006426  -0.004132  -0.003428
      5       0.327947   0.366005   0.185804  -0.049690  -0.049154  -0.023826
      6       0.000889   0.000016  -0.000403  -0.004760  -0.007222  -0.004082
      7      -0.032086  -0.038890  -0.023341   0.001501   0.000325  -0.001664
      8      -0.047845  -0.057223  -0.032712   0.002607  -0.000296  -0.002477
      9      -0.003422   0.005411  -0.003850  -0.020537   0.029986  -0.035805
     10       0.003911   0.000531   0.001547  -0.007250  -0.003359  -0.002158
     11      -0.001824   0.003225  -0.001571  -0.011839   0.013875  -0.017908
     12       0.004158  -0.003482   0.001732  -0.012606   0.012527  -0.017395
     13      -0.076769   0.017187  -0.038171   0.024521   0.179195  -0.118249
     14      -0.021645   0.005375  -0.009707   0.002856   0.050209  -0.035875
     15       0.068248  -0.090484   0.059954   0.328183  -0.486004   0.582653
     16       0.018007  -0.019157   0.014245   0.087126  -0.129157   0.150864
     17       0.033730  -0.043824   0.030355   0.182159  -0.267880   0.317952
     18       0.004515   0.005202   0.002476   0.025651   0.040524   0.020978
     19       0.000833   0.001312   0.000616   0.007453   0.011945   0.005704
     20       0.001930   0.002193   0.000933   0.009042   0.015106   0.008300
     21      -0.068778  -0.080386  -0.038785  -0.411231  -0.657282  -0.342589
     22      -0.012494  -0.017418  -0.007462  -0.087383  -0.127205  -0.065001
     23      -0.034020  -0.038475  -0.018651  -0.211251  -0.344265  -0.180778
     24       0.002115   0.001674   0.000381   0.009463   0.020270   0.012041
     25      -0.003377  -0.002989  -0.002997  -0.046008  -0.060110  -0.024584
     26       0.006658   0.006707   0.005007   0.071523   0.107667   0.050377
     27      -0.000124  -0.000117  -0.000184  -0.008034   0.002834   0.006237
     28       0.002796  -0.000310   0.001563   0.045487  -0.010413  -0.034232
     29       0.000160  -0.000459   0.000097  -0.000507  -0.000262   0.000682
     30       0.003761   0.000893   0.001658   0.047748  -0.011193  -0.027694
     31      -0.043566   0.005290  -0.025269  -0.763148   0.184172   0.582976
     32       0.003267   0.001367   0.001858   0.065708  -0.017361  -0.051388
     33       0.004833  -0.004301   0.003979   0.095176  -0.038684  -0.067344
     34       0.002486  -0.000660   0.001556   0.053086  -0.016647  -0.043146
     35      -0.002541   0.002504  -0.002002  -0.052750   0.019154   0.041465
     36       0.002669  -0.000638  -0.005258  -0.000132  -0.000184   0.000003
     37      -0.034245   0.005093   0.049654   0.000006   0.000040  -0.000283
     38      -0.002720  -0.000183   0.004310   0.000162   0.000115   0.000078
     39      -0.055446   0.005150   0.074846  -0.000305   0.001375  -0.001141
     40       0.543330  -0.081452  -0.821222   0.000775   0.000111   0.005200
     41       0.010295   0.002260   0.002700  -0.000418  -0.001133  -0.000058
     42      -0.012954  -0.007326   0.007299   0.000841  -0.000148  -0.000140
     43      -0.023220   0.005057   0.043564  -0.000303  -0.000580  -0.000154
     44       0.053282   0.007891  -0.071148  -0.001046   0.001162  -0.000064
     45      -0.028452   0.036759  -0.022191   0.004125  -0.004984   0.003948
     46      -0.003782   0.006251  -0.003397   0.000856  -0.001094   0.000827
     47       0.017238  -0.021963   0.012529  -0.002676   0.003509  -0.002703
     48       0.472653  -0.623452   0.379107  -0.074904   0.094554  -0.074323
     49       0.058311  -0.068412   0.035457  -0.006811   0.005615  -0.004466
     50      -0.242851   0.315564  -0.187656   0.037467  -0.047850   0.037152
     51      -0.040134   0.054153  -0.030505   0.008794  -0.013604   0.010482
     52       0.036953  -0.038961   0.009504  -0.006838   0.010370  -0.007883
     53      -0.022103   0.025114  -0.008045   0.004738  -0.007990   0.005862
                 48         49         50         51         52         53    
      0       0.002765  -0.003885   0.000690   0.000133  -0.000673  -0.000222
      1      -0.000936  -0.036977  -0.000036  -0.000063  -0.001599  -0.000434
      2      -0.003819  -0.050366  -0.000403  -0.000058  -0.002106  -0.000471
      3      -0.056382  -0.075012  -0.009592  -0.001691   0.004135   0.002048
      4       0.002794  -0.016155   0.000873   0.000171  -0.001562  -0.000125
      5       0.038498   0.021801   0.009121   0.000978  -0.004639  -0.001805
      6       0.006764   0.140052   0.000407   0.000116   0.005307   0.001225
      7       0.017612   0.603016  -0.000852   0.000588   0.027661   0.006686
      8       0.019896   0.776515  -0.001443   0.000616   0.035554   0.008557
      9      -0.010125   0.000238   0.000100   0.000712   0.000198   0.000656
     10      -0.060543   0.001860  -0.000252  -0.000023   0.001308  -0.000304
     11      -0.018900   0.000525  -0.000060   0.000302   0.000406   0.000124
     12      -0.009243  -0.000648  -0.000170  -0.000117  -0.000221   0.000513
     13       0.945350  -0.029895   0.004384   0.002459  -0.021041   0.006732
     14       0.217687  -0.007503   0.001172   0.000545  -0.004265   0.001624
     15       0.161061  -0.003205  -0.001115  -0.011293  -0.003861  -0.008492
     16       0.013858   0.000212  -0.000351  -0.002358  -0.000216  -0.002872
     17       0.082026  -0.001500  -0.000503  -0.004054  -0.001604  -0.005266
     18      -0.004990   0.000365  -0.000644   0.000545   0.010617   0.002817
     19      -0.002351   0.001708   0.002008   0.000603  -0.029520  -0.007716
     20      -0.000850  -0.002284  -0.003583  -0.000350   0.053156   0.013924
     21       0.085314  -0.007525   0.007622  -0.009572  -0.130068  -0.034792
     22       0.015452  -0.001950   0.002813  -0.000778  -0.042435  -0.010962
     23       0.046754  -0.005308   0.002214  -0.005840  -0.041523  -0.011315
     24      -0.003169   0.001691   0.002456   0.001371  -0.035500  -0.009296
     25       0.019082  -0.026009  -0.034668  -0.005838   0.510328   0.133479
     26      -0.030625   0.040881   0.054528   0.010775  -0.801847  -0.209682
     27       0.000844   0.000084   0.000144  -0.049191  -0.000706   0.000454
     28      -0.003026   0.000037  -0.000019  -0.029015   0.000300   0.000366
     29       0.000285  -0.000043  -0.000058   0.028399   0.000331  -0.000210
     30      -0.002678   0.000043  -0.000011  -0.035587  -0.000812  -0.000086
     31       0.053625  -0.000106   0.001232   0.136086  -0.009629  -0.002549
     32      -0.005125  -0.000079  -0.000297   0.002837   0.002752   0.000364
     33      -0.004691  -0.001383  -0.002169   0.815439   0.011781  -0.007017
     34      -0.004008  -0.000555  -0.000895   0.321960   0.005163  -0.002673
     35       0.003567   0.000771   0.001180  -0.454929  -0.006682   0.003782
     36       0.000310  -0.000158  -0.007656   0.000002  -0.000524  -0.000353
     37      -0.000718   0.000531  -0.025888  -0.000110  -0.001109  -0.002032
     38      -0.000435  -0.000003   0.056452   0.000110   0.003164   0.002822
     39      -0.000825   0.000244  -0.011581  -0.000173   0.000214  -0.002550
     40       0.012791  -0.008279   0.079066   0.001110  -0.000640   0.015473
     41       0.000253   0.000537   0.029840   0.000032   0.002161  -0.000723
     42      -0.000830  -0.000861   0.131355   0.000152   0.007229   0.006456
     43      -0.001438   0.000287   0.328848   0.000659   0.018483   0.015572
     44       0.004529   0.001981  -0.926127  -0.001840  -0.051275  -0.045000
     45      -0.001775   0.000051   0.001881  -0.000493   0.011466  -0.043489
     46      -0.000790   0.000130  -0.000985   0.000398  -0.008917   0.033891
     47       0.001496  -0.000102   0.000641  -0.000316   0.006654  -0.025139
     48       0.040508  -0.002075  -0.009075   0.000258  -0.014381   0.055781
     49       0.001532  -0.000366  -0.001021   0.000376  -0.006872   0.025167
     50      -0.018744   0.000888   0.005311  -0.000377   0.013931  -0.053621
     51      -0.009943   0.001147  -0.021048   0.007583  -0.167266   0.633276
     52       0.008429  -0.001007   0.020118  -0.006679   0.148294  -0.561245
     53      -0.005984   0.000708  -0.016046   0.005462  -0.120350   0.455142


-----------
IR SPECTRUM  
-----------

 Mode    freq (cm**-1)   T**2         TX         TY         TZ
-------------------------------------------------------------------
   6:        14.05    1.713323  ( -1.091397   0.227989   0.685709)
   7:        35.74    0.686220  (  0.353140  -0.074459   0.745632)
   8:        52.62    2.105385  (  0.736351  -0.170750   1.238554)
   9:        71.94    0.737815  (  0.735700  -0.295064  -0.330903)
  10:        89.45    5.192356  ( -0.149333   0.868459   2.101389)
  11:       160.52    0.382816  (  0.615086  -0.066943  -0.001918)
  12:       176.91   84.849684  (  3.520590  -7.460108  -4.099015)
  13:       186.68    1.495984  (  0.228940   1.183718   0.205872)
  14:       201.55   32.656010  (  5.420995   1.331140  -1.223475)
  15:       228.97   26.932167  ( -3.043459  -3.320773  -2.577206)
  16:       236.82  111.591513  (  0.294323 -10.215500  -2.673658)
  17:       243.70  163.568715  (-11.162348  -2.922127  -5.516510)
  18:       258.92   10.073331  ( -1.118214  -2.946059  -0.379031)
  19:       277.54   82.110949  (  7.313505  -5.246656  -1.046998)
  20:       287.89    4.060772  ( -0.572216   0.940894  -1.687619)
  21:       301.96   41.239761  (  3.694579  -4.349850  -2.944258)
  22:       313.34   58.783583  (  2.781614   3.486546  -6.236201)
  23:       386.06   26.697348  (  4.312457   2.214763   1.787426)
  24:       409.63   57.290226  ( -1.512693   5.536611  -4.934361)
  25:       450.41   35.126946  ( -3.758476  -3.277035   3.203411)
  26:       458.54    7.697597  (  0.237587  -2.253762   1.600533)
  27:       489.26   37.231191  (  5.264194  -2.082446  -2.276592)
  28:       552.66    5.394084  (  1.521303   1.531933  -0.856099)
  29:       621.24   64.629813  (  0.516529   4.798583  -6.429356)
  30:       736.17  177.704305  ( -2.396212  11.904130   5.500379)
  31:       757.55  203.138630  ( -2.115535  -5.136188  13.125651)
  32:       834.33  209.987514  ( 13.798097   1.963066   3.968174)
  33:       859.09   75.443594  (  4.820379   2.940774   6.599954)
  34:       909.83  112.784992  ( -3.382156   9.598612   3.035238)
  35:      1026.40   21.413006  (  2.372743   1.435543  -3.704364)
  36:      1652.32   77.502092  (  7.648074   3.982896   1.773581)
  37:      1662.85   90.015696  ( -4.175409  -0.224328   8.516533)
  38:      1666.62   87.375174  ( -3.237882   8.528506  -2.038596)
  39:      1684.04    4.831384  ( -1.986941  -0.912361  -0.225932)
  40:      1696.64   42.380717  ( -5.598735   3.255453  -0.660994)
  41:      1727.67   21.406732  ( -3.900912   2.032816  -1.434321)
  42:      3301.49  253.156583  ( -1.589543  15.717623   1.893741)
  43:      3381.50  2139.973081  (-42.781753   1.481950  17.535635)
  44:      3437.16  642.086600  (  3.864774 -24.889990   2.763784)
  45:      3539.39  328.405100  ( -3.252790 -17.825034  -0.304322)
  46:      3598.77  852.042254  (-23.814906   3.453608 -16.521656)
  47:      3614.87  229.136833  (  6.537296  13.597918   1.223611)
  48:      3752.49  450.650856  (  7.548152  19.078054   5.450148)
  49:      3903.60   86.330631  ( -2.268923   4.082481   8.032183)
  50:      3910.88   70.786525  (  0.971785   6.086364  -5.726983)
  51:      3912.51   87.002189  (  5.280559   7.047834  -3.073424)
  52:      3914.33  127.342955  ( -6.930100   3.992611  -7.960888)
  53:      3914.96   45.502525  (  6.066331  -2.721867  -1.137362)

The first frequency considered to be a vibration is 6
The total number of vibrations considered is 48


--------------------------
THERMOCHEMISTRY AT 298.15K
--------------------------

Temperature         ... 298.15 K
Pressure            ... 1.00 atm
Total Mass          ... 108.09 AMU

Throughout the following assumptions are being made:
  (1) The electronic state is orbitally nondegenerate
  (2) There are no thermally accessible electronically excited states
  (3) Hindered rotations indicated by low frequency modes are not
      treated as such but are treated as vibrations and this may
      cause some error
  (4) All equations used are the standard statistical mechanics
      equations for an ideal gas
  (5) All vibrations are strictly harmonic

freq.      14.05  E(vib)   ...       0.57 
freq.      35.74  E(vib)   ...       0.54 
freq.      52.62  E(vib)   ...       0.52 
freq.      71.94  E(vib)   ...       0.50 
freq.      89.45  E(vib)   ...       0.47 
freq.     160.52  E(vib)   ...       0.39 
freq.     176.91  E(vib)   ...       0.38 
freq.     186.68  E(vib)   ...       0.37 
freq.     201.55  E(vib)   ...       0.35 
freq.     228.97  E(vib)   ...       0.32 
freq.     236.82  E(vib)   ...       0.32 
freq.     243.70  E(vib)   ...       0.31 
freq.     258.92  E(vib)   ...       0.30 
freq.     277.54  E(vib)   ...       0.28 
freq.     287.89  E(vib)   ...       0.27 
freq.     301.96  E(vib)   ...       0.26 
freq.     313.34  E(vib)   ...       0.25 
freq.     386.06  E(vib)   ...       0.20 
freq.     409.63  E(vib)   ...       0.19 
freq.     450.41  E(vib)   ...       0.17 
freq.     458.54  E(vib)   ...       0.16 
freq.     489.26  E(vib)   ...       0.15 
freq.     552.66  E(vib)   ...       0.12 
freq.     621.24  E(vib)   ...       0.09 
freq.     736.17  E(vib)   ...       0.06 
freq.     757.55  E(vib)   ...       0.06 
freq.     834.33  E(vib)   ...       0.04 
freq.     859.09  E(vib)   ...       0.04 
freq.     909.83  E(vib)   ...       0.03 
freq.    1026.40  E(vib)   ...       0.02 
freq.    1652.32  E(vib)   ...       0.00 
freq.    1662.85  E(vib)   ...       0.00 
freq.    1666.62  E(vib)   ...       0.00 
freq.    1684.04  E(vib)   ...       0.00 
freq.    1696.64  E(vib)   ...       0.00 
freq.    1727.67  E(vib)   ...       0.00 
freq.    3301.49  E(vib)   ...       0.00 
freq.    3381.50  E(vib)   ...       0.00 
freq.    3437.16  E(vib)   ...       0.00 
freq.    3539.39  E(vib)   ...       0.00 
freq.    3598.77  E(vib)   ...       0.00 
freq.    3614.87  E(vib)   ...       0.00 
freq.    3752.49  E(vib)   ...       0.00 
freq.    3903.60  E(vib)   ...       0.00 
freq.    3910.88  E(vib)   ...       0.00 
freq.    3912.51  E(vib)   ...       0.00 
freq.    3914.33  E(vib)   ...       0.00 
freq.    3914.96  E(vib)   ...       0.00 

------------
INNER ENERGY
------------

The inner energy is: U= E(el) + E(ZPE) + E(vib) + E(rot) + E(trans)
    E(el)   - is the total energy from the electronic structure calculation
              = E(kin-el) + E(nuc-el) + E(el-el) + E(nuc-nuc)
    E(ZPE)  - the the zero temperature vibrational energy from the frequency calculation
    E(vib)  - the the finite temperature correction to E(ZPE) due to population
              of excited vibrational states
    E(rot)  - is the rotational thermal energy
    E(trans)- is the translational thermal energy

Summary of contributions to the inner energy U:
Electronic energy                ...   -458.42119389 Eh
Zero point energy                ...      0.15013540 Eh      94.21 kcal/mol
Thermal vibrational correction   ...      0.01234680 Eh       7.75 kcal/mol
Thermal rotational correction    ...      0.00141627 Eh       0.89 kcal/mol
Thermal translational correction ...      0.00141627 Eh       0.89 kcal/mol
-----------------------------------------------------------------------
Total thermal energy                   -458.25587915 Eh


Summary of corrections to the electronic energy:
(perhaps to be used in another calculation)
Total thermal correction                  0.01517934 Eh       9.53 kcal/mol
Non-thermal (ZPE) correction              0.15013540 Eh      94.21 kcal/mol
-----------------------------------------------------------------------
Total correction                          0.16531474 Eh     103.74 kcal/mol


--------
ENTHALPY
--------

The enthalpy is H = U + kB*T
                kB is Boltzmann's constant
Total free energy                 ...   -458.25587915 Eh 
Thermal Enthalpy correction       ...      0.00094421 Eh       0.59 kcal/mol
-----------------------------------------------------------------------
Total Enthalpy                    ...   -458.25493494 Eh


Note: Only C1 symmetry has been detected, increase convergence thresholds 
      if your molecule has a higher symmetry. Symmetry factor of 1.0 is   
      used for the rotational entropy correction. 
 

Note: Rotational entropy computed according to Herzberg 
Infrared and Raman Spectra, Chapter V,1, Van Nostrand Reinhold, 1945 
Point Group:  C1, Symmetry Number:   1  
Rotational constants in cm-1:     0.064840     0.036900     0.026973 

Vibrational entropy computed according to the QRRHO of S. Grimme
Chem.Eur.J. 2012 18 9955


-------
ENTROPY
-------

The entropy contributions are T*S = T*(S(el)+S(vib)+S(rot)+S(trans))
     S(el)   - electronic entropy
     S(vib)  - vibrational entropy
     S(rot)  - rotational entropy
     S(trans)- translational entropy
The entropies will be listed as mutliplied by the temperature to get
units of energy

Electronic entropy                ...      0.00000000 Eh      0.00 kcal/mol
Vibrational entropy               ...      0.02252652 Eh     14.14 kcal/mol
Rotational entropy                ...      0.01406568 Eh      8.83 kcal/mol
Translational entropy             ...      0.01898142 Eh     11.91 kcal/mol
-----------------------------------------------------------------------
Final entropy term                ...      0.05557362 Eh     34.87 kcal/mol

In case the symmetry of your molecule has not been determined correctly
or in case you have a reason to use a different symmetry number we print 
out the resulting rotational entropy values for sn=1,12 :
 --------------------------------------------------------
|  sn= 1 | S(rot)=       0.01406568 Eh      8.83 kcal/mol|
|  sn= 2 | S(rot)=       0.01341122 Eh      8.42 kcal/mol|
|  sn= 3 | S(rot)=       0.01302839 Eh      8.18 kcal/mol|
|  sn= 4 | S(rot)=       0.01275677 Eh      8.00 kcal/mol|
|  sn= 5 | S(rot)=       0.01254608 Eh      7.87 kcal/mol|
|  sn= 6 | S(rot)=       0.01237394 Eh      7.76 kcal/mol|
|  sn= 7 | S(rot)=       0.01222839 Eh      7.67 kcal/mol|
|  sn= 8 | S(rot)=       0.01210231 Eh      7.59 kcal/mol|
|  sn= 9 | S(rot)=       0.01199110 Eh      7.52 kcal/mol|
|  sn=10 | S(rot)=       0.01189162 Eh      7.46 kcal/mol|
|  sn=11 | S(rot)=       0.01180163 Eh      7.41 kcal/mol|
|  sn=12 | S(rot)=       0.01171948 Eh      7.35 kcal/mol|
 --------------------------------------------------------


-------------------
GIBBS FREE ENERGY
-------------------

The Gibbs free energy is G = H - T*S

Total enthalpy                    ...   -458.25493494 Eh 
Total entropy correction          ...     -0.05557362 Eh    -34.87 kcal/mol
-----------------------------------------------------------------------
Final Gibbs free energy         ...   -458.31050856 Eh

For completeness - the Gibbs free energy minus the electronic energy
G-E(el)                           ...      0.11068533 Eh     69.46 kcal/mol


Total Time for Numerical Frequencies  :     10966.311 sec

Timings for individual modules:

Sum of individual times         ...      572.699 sec (=   9.545 min)
GTO integral calculation        ...        4.353 sec (=   0.073 min)   0.8 %
SCF iterations                  ...       35.005 sec (=   0.583 min)   6.1 %
MP2 module                      ...      532.859 sec (=   8.881 min)  93.0 %
Geometry relaxation             ...        0.481 sec (=   0.008 min)   0.1 %
                             ****ORCA TERMINATED NORMALLY****
TOTAL RUN TIME: 0 days 3 hours 10 minutes 30 seconds 197 msec
