
                                 *****************
                                 * O   R   C   A *
                                 *****************

           --- An Ab Initio, DFT and Semiempirical electronic structure package ---

                  #######################################################
                  #                        -***-                        #
                  #          Department of theory and spectroscopy      #
                  #               Directorship: Frank Neese             #
                  #        Max Planck Institute fuer Kohlenforschung    #
                  #                Kaiser Wilhelm Platz 1               #
                  #                 D-45470 Muelheim/Ruhr               #
                  #                      Germany                        #
                  #                                                     #
                  #                  All rights reserved                #
                  #                        -***-                        #
                  #######################################################


                         Program Version 4.2.0 -  RELEASE  -


 With contributions from (in alphabetic order):
   Daniel Aravena         : Magnetic Suceptibility
   Michael Atanasov       : Ab Initio Ligand Field Theory (pilot matlab implementation)
   Alexander A. Auer      : GIAO ZORA, VPT2
   Ute Becker             : Parallelization
   Giovanni Bistoni       : ED, misc. LED, open-shell LED, HFLED
   Martin Brehm           : Molecular dynamics
   Dmytro Bykov           : SCF Hessian
   Vijay G. Chilkuri      : MRCI spin determinant printing, contributions to CSF-ICE
   Dipayan Datta          : RHF DLPNO-CCSD density
   Achintya Kumar Dutta   : EOM-CC, STEOM-CC
   Dmitry Ganyushin       : Spin-Orbit,Spin-Spin,Magnetic field MRCI
   Miquel Garcia          : C-PCM Hessian, Gaussian charge scheme
   Yang Guo               : DLPNO-NEVPT2, CIM, IAO-localization
   Andreas Hansen         : Spin unrestricted coupled pair/coupled cluster methods
   Benjamin Helmich-Paris : CASSCF linear response (MC-RPA)
   Lee Huntington         : MR-EOM, pCC
   Robert Izsak           : Overlap fitted RIJCOSX, COSX-SCS-MP3, EOM
   Christian Kollmar      : KDIIS, OOCD, Brueckner-CCSD(T), CCSD density
   Simone Kossmann        : Meta GGA functionals, TD-DFT gradient, OOMP2, MP2 Hessian
   Martin Krupicka        : AUTO-CI
   Lucas Lang             : DCDCAS
   Dagmar Lenk            : GEPOL surface, SMD
   Dimitrios Liakos       : Extrapolation schemes; Compound Job, initial MDCI parallelization
   Dimitrios Manganas     : Further ROCIS development; embedding schemes
   Dimitrios Pantazis     : SARC Basis sets
   Taras Petrenko         : DFT Hessian,TD-DFT gradient, ASA, ECA, R-Raman, ABS, FL, XAS/XES, NRVS
   Peter Pinski           : DLPNO-MP2, DLPNO-MP2 Gradient
   Christoph Reimann      : Effective Core Potentials
   Marius Retegan         : Local ZFS, SOC
   Christoph Riplinger    : Optimizer, TS searches, QM/MM, DLPNO-CCSD(T), (RO)-DLPNO pert. Triples
   Tobias Risthaus        : Range-separated hybrids, TD-DFT gradient, RPA, STAB
   Michael Roemelt        : Original ROCIS implementation
   Masaaki Saitow         : Open-shell DLPNO-CCSD energy and density
   Barbara Sandhoefer     : DKH picture change effects
   Avijit Sen             : IP-ROCIS
   Kantharuban Sivalingam : CASSCF convergence, NEVPT2, FIC-MRCI
   Bernardo de Souza      : ESD, SOC TD-DFT
   Georgi Stoychev        : AutoAux, RI-MP2 NMR
   Willem Van den Heuvel  : Paramagnetic NMR
   Boris Wezisla          : Elementary symmetry handling
   Frank Wennmohs         : Technical directorship


 We gratefully acknowledge several colleagues who have allowed us to
 interface, adapt or use parts of their codes:
   Stefan Grimme, W. Hujo, H. Kruse,             : VdW corrections, initial TS optimization,
                  C. Bannwarth                     DFT functionals, gCP, sTDA/sTD-DF
   Ed Valeev, F. Pavosevic, A. Kumar             : LibInt (2-el integral package), F12 methods
   Garnet Chan, S. Sharma, J. Yang, R. Olivares  : DMRG
   Ulf Ekstrom                                   : XCFun DFT Library
   Mihaly Kallay                                 : mrcc  (arbitrary order and MRCC methods)
   Andreas Klamt, Michael Diedenhofen            : otool_cosmo (COSMO solvation model)
   Jiri Pittner, Ondrej Demel                    : Mk-CCSD
   Frank Weinhold                                : gennbo (NPA and NBO analysis)
   Christopher J. Cramer and Donald G. Truhlar   : smd solvation model
   Lars Goerigk                                  : TD-DFT with DH, B97 family of functionals
   V. Asgeirsson, H. Jonsson                     : NEB implementation
   FAccTs GmbH                                   : IRC, NEB, NEB-TS, Multilevel, MM, QM/MM, CI optimization
   S Lehtola, MJT Oliveira, MAL Marques          : LibXC Library


 Your calculation uses the libint2 library for the computation of 2-el integrals
 For citations please refer to: http://libint.valeyev.net

 Your ORCA version has been built with support for libXC version: 4.2.3
 For citations please refer to: https://tddft.org/programs/libxc/

 This ORCA versions uses:
   CBLAS   interface :  Fast vector & matrix operations
   LAPACKE interface :  Fast linear algebra routines
   SCALAPACK package :  Parallel linear algebra routines


Your calculation utilizes the atom-pairwise dispersion correction
with the Becke-Johnson damping scheme (D3BJ)
Cite in your paper:
S.Grimme, S.Ehrlich, L.Goerigk, J Comput Chem, (2011), 32, 1456–1465 
S.Grimme, J.Antony, S.Ehrlich and H.Krieg, J.Chem.Phys., 132, (2010), 154104 
   

----- Orbital basis set information -----
Your calculation utilizes the basis: aug-cc-pV(T+d)Z 
             Al - Ar: T.H. Dunning, Jr., K. A. Peterson and A. K. Wilson, J. Chem. Phys.
                      114, 9244 (2001)

----- AuxC basis set information -----
Your calculation utilizes the auxiliary basis: def2-TZVP/C
  H-La, Hf-Rn : A. Hellweg, C. Hattig, S. Hofener and W. Klopper, Theor. Chem. Acc. 117, 587 (2007).
        Ce-Lu : J. Chmela and M. E. Harding, Mol. Phys. (2018).

----- AuxJK basis set information -----
Your calculation utilizes the auxiliary basis: def2/JK
   H-Ba, Hf-Rn: F. Weigend, J. Comput. Chem. 29, 167 (2008).

================================================================================
                                        WARNINGS
                       Please study these warnings very carefully!
================================================================================


WARNING: The frozen-core approximation for MP2-gradient calculations is turned on by default.

WARNING: Geometry Optimization
  ===> : Switching off AutoStart
         For restart on a previous wavefunction, please use MOREAD

WARNING: There are different parametrizations of Gershom Martin's DSD-DFs
         for use with and without D3(BJ)!
         You are using the D3(BJ) parametrized version,
         consistent with the 2013 article (S. Kozuch and J. M. L. Martin, JCC 2013, 34, 2327)

WARNING: The frozen-core approximation is turned on by default for 
         the MP2 part of double-hybrid DFT.

INFO   : the flag for use of LIBINT has been found!

================================================================================
                                       INPUT FILE
================================================================================
NAME = 08_H2O_6_cage.in
|  1> #
|  2> # 08_H2O_6_cage dsd-blyp/aug-cc-pvt(+d)z
|  3> #
|  4> ! rijk ri-dsd-blyp/2013 d3bj aug-cc-pvt(+d)z def2/jk def2-tzvp/c grid4 nofinalgrid opt xyzfile numfreq
|  5> 
|  6> *xyz 0 1
|  7> O	0.862065	-1.728538	-0.448765
|  8> H	1.679686	-1.216793	-0.290371
|  9> H	1.141594	-2.607406	-0.70991
| 10> O	-0.751083	0.359939	-1.648316
| 11> H	-0.283702	-0.473988	-1.502279
| 12> H	-1.624922	0.21572	-1.247934
| 13> O	0.590537	1.75631	0.198185
| 14> H	0.069166	1.374794	-0.548651
| 15> H	0.493944	2.707937	0.134574
| 16> O	-0.675492	-0.446436	1.665684
| 17> H	-0.188802	-1.063799	1.102054
| 18> H	-0.260662	0.405216	1.474464
| 19> O	2.803582	0.112403	0.084677
| 20> H	2.165098	0.844551	0.158067
| 21> H	3.282044	0.106258	0.915526
| 22> O	-2.901034	0.010949	0.089937
| 23> H	-2.258917	-0.224605	0.785219
| 24> H	-3.643112	-0.584893	0.198028
| 25> *
| 26> 
| 27> %maxcore 5000
| 28> 
| 29> %pal
| 30> nprocs 24
| 31> end
| 32> 
| 33> 
| 34>                          ****END OF INPUT****
================================================================================

                       *****************************
                       * Geometry Optimization Run *
                       *****************************

Geometry optimization settings:
Update method            Update   .... BFGS
Choice of coordinates    CoordSys .... Z-matrix Internals
Initial Hessian          InHess   .... Almoef's Model

Convergence Tolerances:
Energy Change            TolE     ....  5.0000e-06 Eh
Max. Gradient            TolMAXG  ....  3.0000e-04 Eh/bohr
RMS Gradient             TolRMSG  ....  1.0000e-04 Eh/bohr
Max. Displacement        TolMAXD  ....  4.0000e-03 bohr
RMS Displacement         TolRMSD  ....  2.0000e-03 bohr
Strict Convergence                ....  False
------------------------------------------------------------------------------
                        ORCA OPTIMIZATION COORDINATE SETUP
------------------------------------------------------------------------------

The optimization will be done in new redundant internal coordinates
Making redundant internal coordinates   ...  (new redundants) done
Evaluating the initial hessian          ...  (Almloef) done
Evaluating the coordinates              ...  done
Calculating the B-matrix                .... done
Calculating the G-matrix                .... done
Diagonalizing the G-matrix              .... done
The first mode is                       ....  268
The number of degrees of freedom        ....   48

    -----------------------------------------------------------------
                    Redundant Internal Coordinates


    -----------------------------------------------------------------
         Definition                    Initial Value    Approx d2E/dq
    -----------------------------------------------------------------
      1. B(H   1,O   0)                  0.9775         0.487609   
      2. B(H   2,O   0)                  0.9585         0.522809   
      3. B(H   4,O   3)                  0.9671         0.506643   
      4. B(H   4,O   0)                  1.9991         0.011431   
      5. B(H   5,O   3)                  0.9720         0.497612   
      6. B(H   7,H   4)                  2.1100         0.001626   
      7. B(H   7,O   3)                  1.7065         0.033500   
      8. B(H   7,O   6)                  0.9875         0.470003   
      9. B(H   7,H   5)                  2.1685         0.001312   
     10. B(H   8,O   6)                  0.9586         0.522581   
     11. B(H  10,O   0)                  1.9878         0.011918   
     12. B(H  10,H   1)                  2.3353         0.000711   
     13. B(H  10,O   9)                  0.9673         0.506184   
     14. B(H  11,H   7)                  2.2676         0.000911   
     15. B(H  11,O   6)                  2.0442         0.009686   
     16. B(H  11,O   9)                  0.9664         0.507844   
     17. B(O  12,H   1)                  1.7806         0.025512   
     18. B(H  13,O   6)                  1.8199         0.022080   
     19. B(H  13,H   1)                  2.1647         0.001330   
     20. B(H  13,O  12)                  0.9742         0.493506   
     21. B(H  13,H   7)                  2.2745         0.000888   
     22. B(H  14,O  12)                  0.9588         0.522277   
     23. B(O  15,H   5)                  1.8602         0.019045   
     24. B(H  16,H  11)                  2.2056         0.001144   
     25. B(H  16,H  10)                  2.2561         0.000951   
     26. B(H  16,O   9)                  1.8253         0.021650   
     27. B(H  16,H   5)                  2.1748         0.001282   
     28. B(H  16,O  15)                  0.9753         0.491531   
     29. B(H  17,O  15)                  0.9578         0.524165   
     30. A(H   4,O   0,H  10)           84.1622         0.130751   
     31. A(H   2,O   0,H   4)          126.7959         0.187252   
     32. A(H   1,O   0,H  10)           98.0887         0.186633   
     33. A(H   1,O   0,H   4)          103.6653         0.185714   
     34. A(H   2,O   0,H  10)          132.3270         0.188186   
     35. A(H   1,O   0,H   2)          106.2749         0.318758   
     36. A(H  10,H   1,O  12)          109.3008         0.110399   
     37. A(O  12,H   1,H  13)           26.3603         0.113660   
     38. A(O   0,H   1,H  10)           57.4292         0.130727   
     39. A(O   0,H   1,H  13)          136.0277         0.137086   
     40. A(O   0,H   1,O  12)          162.3447         0.204986   
     41. A(H  10,H   1,H  13)           89.6282         0.097872   
     42. A(H   5,O   3,H   7)          104.7699         0.212930   
     43. A(H   4,O   3,H   5)          104.1436         0.318181   
     44. A(H   4,O   3,H   7)          100.5572         0.213436   
     45. A(O   3,H   4,H   7)           52.6623         0.139762   
     46. A(O   0,H   4,O   3)          153.8607         0.186556   
     47. A(O   0,H   4,H   7)          102.4647         0.110520   
     48. A(O  15,H   5,H  16)           26.5348         0.111889   
     49. A(H   7,H   5,H  16)           91.9766         0.099106   
     50. A(O   3,H   5,O  15)          158.3358         0.198060   
     51. A(O   3,H   5,H  16)          132.6293         0.136904   
     52. A(H   7,H   5,O  15)          111.2749         0.112008   
     53. A(O   3,H   5,H   7)           49.5462         0.137154   
     54. A(H   8,O   6,H  13)          125.6646         0.203028   
     55. A(H   7,O   6,H   8)          106.2686         0.316831   
     56. A(H   8,O   6,H  11)          130.9632         0.183628   
     57. A(H   7,O   6,H  11)           89.8273         0.181383   
     58. A(H  11,O   6,H  13)           92.4586         0.135238   
     59. A(H   7,O   6,H  13)          104.2743         0.200324   
     60. A(O   3,H   7,H  11)          104.5211         0.113078   
     61. A(H   4,H   7,H  13)           95.1792         0.098766   
     62. A(O   3,H   7,H   4)           26.7805         0.116450   
     63. A(H   4,H   7,O   6)          140.2320         0.138907   
     64. A(H   5,H   7,H  13)          134.0648         0.098302   
     65. A(O   3,H   7,H  13)          120.2990         0.112939   
     66. A(O   3,H   7,O   6)          166.1473         0.211339   
     67. A(H   4,H   7,H   5)           41.8630         0.099666   
     68. A(O   6,H   7,H  13)           50.8439         0.132524   
     69. A(O   6,H   7,H  11)           64.3565         0.132777   
     70. A(O   3,H   7,H   5)           25.6839         0.115146   
     71. A(H  11,H   7,H  13)           75.9447         0.097566   
     72. A(H   4,H   7,H  11)           90.2440         0.098822   
     73. A(H   5,H   7,O   6)          149.6388         0.136536   
     74. A(H   5,H   7,H  11)           86.8776         0.098356   
     75. A(H  10,O   9,H  11)          103.3663         0.319192   
     76. A(H  11,O   9,H  16)           99.7776         0.201790   
     77. A(H  10,O   9,H  16)          103.4719         0.201706   
     78. A(O   0,H  10,H   1)           24.4821         0.107013   
     79. A(H   1,H  10,O   9)          142.3549         0.131081   
     80. A(O   0,H  10,O   9)          159.0703         0.187463   
     81. A(O   0,H  10,H  16)          119.9940         0.108239   
     82. A(O   9,H  10,H  16)           51.8857         0.133945   
     83. A(H   1,H  10,H  16)          132.4378         0.097222   
     84. A(H   7,H  11,O   9)          128.0085         0.133551   
     85. A(O   6,H  11,O   9)          152.2159         0.183017   
     86. A(O   9,H  11,H  16)           54.6408         0.135906   
     87. A(O   6,H  11,H  16)          111.7695         0.108144   
     88. A(H   7,H  11,H  16)           88.5715         0.098071   
     89. A(O   6,H  11,H   7)           25.8161         0.107182   
     90. A(H  13,O  12,H  14)          105.4616         0.319331   
     91. A(H   1,O  12,H  14)          119.5194         0.206803   
     92. A(H   1,O  12,H  13)           99.3928         0.205302   
     93. A(O   6,H  13,O  12)          160.9419         0.201561   
     94. A(H   1,H  13,O  12)           54.2470         0.137217   
     95. A(O   6,H  13,H   7)           24.8818         0.110784   
     96. A(H   1,H  13,H   7)           87.1910         0.098331   
     97. A(H   7,H  13,O  12)          139.0876         0.133007   
     98. A(H   1,H  13,O   6)          106.7159         0.112867   
     99. A(H  16,O  15,H  17)          106.2239         0.319310   
    100. A(H   5,O  15,H  17)          132.9334         0.199351   
    101. A(H   5,O  15,H  16)           95.0284         0.197757   
    102. A(H   5,H  16,O  15)           58.4368         0.136771   
    103. A(H  10,H  16,H  11)           39.7390         0.098158   
    104. A(O   9,H  16,H  11)           25.5816         0.111966   
    105. A(H   5,H  16,H  11)           88.2932         0.098799   
    106. A(H  11,H  16,O  15)          138.6152         0.135561   
    107. A(O   9,H  16,H  10)           24.6424         0.111022   
    108. A(H   5,H  16,H  10)           86.5092         0.098396   
    109. A(H  10,H  16,O  15)          142.5658         0.133647   
    110. A(H   5,H  16,O   9)          102.8661         0.112563   
    111. A(O   9,H  16,O  15)          160.7985         0.200959   
    112. D(H  13,H   1,O   0,H   4)     38.2361         0.382600   
    113. D(H  10,H   1,O   0,H   2)   -138.5912         0.382600   
    114. D(H  13,H   1,O   0,H   2)    173.7263         0.382600   
    115. D(O  12,H   1,O   0,H  10)    -44.4494         0.382600   
    116. D(O  12,H   1,O   0,H   4)     41.4693         0.382600   
    117. D(O  12,H   1,O   0,H   2)    176.9594         0.382600   
    118. D(H  10,H   1,O   0,H   4)     85.9186         0.382600   
    119. D(H  13,H   1,O   0,H  10)    -47.6825         0.382600   
    120. D(O   0,H   4,O   3,H   5)    -88.0836         0.358633   
    121. D(H   7,H   4,O   0,H   1)    -40.3714         0.001582   
    122. D(H   7,H   4,O   3,H   5)   -108.3245         0.358633   
    123. D(O   0,H   4,O   3,H   7)     20.2409         0.358633   
    124. D(O   3,H   4,O   0,H  10)     40.1989         0.001582   
    125. D(H   7,H   4,O   0,H   2)   -163.1930         0.001582   
    126. D(O   3,H   4,O   0,H   1)    -56.7337         0.001582   
    127. D(O   3,H   4,O   0,H   2)   -179.5553         0.001582   
    128. D(H   7,H   4,O   0,H  10)     56.5612         0.001582   
    129. D(H   7,H   5,O   3,H   4)    105.1792         0.373690   
    130. D(H  16,H   5,O   3,H   4)     61.5053         0.373690   
    131. D(O  15,H   5,O   3,H   4)     73.9324         0.373690   
    132. D(H  16,H   5,O   3,H   7)    -43.6739         0.373690   
    133. D(O  15,H   5,O   3,H   7)    -31.2469         0.373690   
    134. D(H   4,H   7,O   6,H  13)     37.2047         0.395198   
    135. D(H   4,H   7,O   3,H   5)    107.8298         0.002365   
    136. D(H  13,H   7,O   6,H  11)    -92.4930         0.395198   
    137. D(O   3,H   7,H   5,H  16)    149.4441         0.001523   
    138. D(O   3,H   7,O   6,H   8)   -171.2792         0.395198   
    139. D(O   3,H   7,O   6,H  11)    -38.2757         0.395198   
    140. D(H  11,H   7,O   3,H   5)     48.0566         0.002365   
    141. D(H   5,H   7,O   6,H   8)   -112.8945         0.395198   
    142. D(H  13,H   7,O   3,H   4)     22.2244         0.002365   
    143. D(H  11,H   7,H   5,O  15)     34.2878         0.001523   
    144. D(H  11,H   7,H   5,O   3)   -133.8533         0.001523   
    145. D(H   4,H   7,H   5,O   3)    -39.9963         0.001523   
    146. D(H   4,H   7,H   5,O  15)    128.1449         0.001523   
    147. D(O   6,H   7,O   3,H   5)     83.2867         0.002365   
    148. D(H  13,H   7,H   5,H  16)     82.5564         0.001523   
    149. D(H  13,H   7,O   3,H   5)    130.0542         0.002365   
    150. D(O   6,H   7,O   3,H   4)    -24.5431         0.002365   
    151. D(H  11,H   7,H   5,H  16)     15.5908         0.001523   
    152. D(O   6,H   7,H   5,O   3)   -151.9370         0.001523   
    153. D(H  11,H   7,H   4,O   0)    -47.7862         0.001533   
    154. D(H  13,H   7,H   4,O   3)   -160.8581         0.001533   
    155. D(H  13,H   7,O   6,H   8)    134.5035         0.395198   
    156. D(O   3,H   7,H   5,O  15)    168.1412         0.001523   
    157. D(H  13,H   7,H   5,O  15)    101.2535         0.001523   
    158. D(H  13,H   7,H   4,O   0)     28.1223         0.001533   
    159. D(H   5,H   7,H   4,O   3)     38.1884         0.001533   
    160. D(H   5,H   7,H   4,O   0)   -132.8312         0.001533   
    161. D(H   4,H   7,H   5,H  16)    109.4479         0.001523   
    162. D(H  11,H   7,H   4,O   3)    123.2333         0.001533   
    163. D(O   6,H   7,H   5,H  16)     -2.4928         0.001523   
    164. D(O   3,H   7,O   6,H  13)     54.2173         0.395198   
    165. D(O   6,H   7,H   5,O  15)     16.2042         0.001523   
    166. D(H  11,H   7,O   6,H  13)     92.4930         0.395198   
    167. D(H   5,H   7,O   3,H   4)   -107.8298         0.002365   
    168. D(H  11,H   7,O   3,H   4)    -59.7732         0.002365   
    169. D(H   4,H   7,O   6,H   8)    171.7082         0.395198   
    170. D(H  11,H   7,O   6,H   8)   -133.0035         0.395198   
    171. D(H   4,H   7,O   6,H  11)    -55.2883         0.395198   
    172. D(H   5,H   7,O   6,H  13)    112.6020         0.395198   
    173. D(O   6,H   7,H   4,O   3)    171.0558         0.001533   
    174. D(O   6,H   7,H   4,O   0)      0.0363         0.001533   
    175. D(H   5,H   7,O   6,H  11)     20.1090         0.395198   
    176. D(H  13,H   7,H   5,O   3)    -66.8877         0.001523   
    177. D(O   3,H   7,H   4,O   0)   -171.0195         0.001533   
    178. D(H   1,H  10,O   9,H  16)    112.7795         0.390518   
    179. D(H   1,H  10,O   9,H  11)      9.1046         0.390518   
    180. D(O   0,H  10,O   9,H  16)     74.1849         0.390518   
    181. D(O   0,H  10,O   9,H  11)    -29.4900         0.390518   
    182. D(H  16,H  10,H   1,H  13)     81.0366         0.001506   
    183. D(H  16,H  10,H   1,O  12)     98.9224         0.001506   
    184. D(H  16,H  10,H   1,O   0)    -68.0727         0.001506   
    185. D(O   0,H  10,H   1,H  13)    149.1093         0.001506   
    186. D(O   0,H  10,H   1,O  12)    166.9951         0.001506   
    187. D(O   9,H  10,H   1,O  12)     19.5238         0.001506   
    188. D(H  16,H  10,O   0,H   1)    127.7691         0.001597   
    189. D(H   1,H  10,O   0,H   4)   -103.0227         0.001597   
    190. D(H   1,H  10,O   0,H   2)    120.8181         0.001597   
    191. D(H  16,H  10,O   0,H   2)   -111.4129         0.001597   
    192. D(O   9,H  10,O   0,H   4)    -36.1869         0.001597   
    193. D(H  16,H  10,O   0,H   4)     24.7463         0.001597   
    194. D(O   9,H  10,O   0,H   2)   -172.3461         0.001597   
    195. D(O   9,H  10,O   0,H   1)     66.8358         0.001597   
    196. D(O   9,H  10,H   1,H  13)      1.6380         0.001506   
    197. D(H  16,H  10,O   9,H  11)   -103.6749         0.390518   
    198. D(O   9,H  10,H   1,O   0)   -147.4713         0.001506   
    199. D(H  16,H  11,O   9,H  10)    106.4949         0.393833   
    200. D(H   7,H  11,O   9,H  16)    -53.6042         0.393833   
    201. D(H   7,H  11,O   9,H  10)     52.8907         0.393833   
    202. D(O   6,H  11,O   9,H  10)     38.2838         0.393833   
    203. D(H  16,H  11,H   7,H   5)    -15.3627         0.001511   
    204. D(H  16,H  11,H   7,H   4)    -57.1100         0.001511   
    205. D(H  16,H  11,H   7,H  13)   -152.3883         0.001511   
    206. D(H  16,H  11,H   7,O   6)    154.6147         0.001511   
    207. D(O   6,H  11,H   7,H   5)   -169.9775         0.001511   
    208. D(O   6,H  11,H   7,H   4)    148.2752         0.001511   
    209. D(O   9,H  11,H   7,H   5)     25.6832         0.001511   
    210. D(O   9,H  11,H   7,H  13)   -111.3424         0.001511   
    211. D(O   9,H  11,H   7,O   6)   -164.3394         0.001511   
    212. D(H   7,H  11,O   6,H  13)   -104.2801         0.001564   
    213. D(H   7,H  11,O   6,H   8)    111.6151         0.001564   
    214. D(O   9,H  11,O   6,H  13)    -77.1329         0.001564   
    215. D(H  16,H  11,O   6,H   7)    -27.4827         0.001564   
    216. D(O   9,H  11,O   6,H   8)    138.7622         0.001564   
    217. D(H  16,H  11,H   7,O   3)    -34.1980         0.001511   
    218. D(O   9,H  11,O   6,H   7)     27.1472         0.001564   
    219. D(H  16,H  11,O   6,H   8)     84.1324         0.001564   
    220. D(O   9,H  11,H   7,O   3)      6.8478         0.001511   
    221. D(O   6,H  11,O   9,H  16)    -68.2111         0.393833   
    222. D(O   9,H  11,H   7,H   4)    -16.0642         0.001511   
    223. D(O   6,H  11,H   7,O   3)    171.1872         0.001511   
    224. D(O   6,H  11,H   7,H  13)     52.9970         0.001511   
    225. D(H  16,H  11,O   6,H  13)   -131.7628         0.001564   
    226. D(H  14,O  12,H   1,H  10)     70.0774         0.001924   
    227. D(H  14,O  12,H   1,H  13)    113.8402         0.001924   
    228. D(H  14,O  12,H   1,O   0)    108.7807         0.001924   
    229. D(H  13,O  12,H   1,H  10)    -43.7628         0.001924   
    230. D(H  13,O  12,H   1,O   0)     -5.0596         0.001924   
    231. D(H   7,H  13,H   1,O  12)    165.3865         0.001521   
    232. D(H   7,H  13,H   1,O   0)    -16.8213         0.001521   
    233. D(O   6,H  13,H   1,H  10)    -39.7498         0.001521   
    234. D(O   6,H  13,H   1,O  12)   -178.9957         0.001521   
    235. D(O   6,H  13,H   1,O   0)     -1.2035         0.001521   
    236. D(O  12,H  13,H   1,H  10)    139.2459         0.001521   
    237. D(H   7,H  13,H   1,H  10)    -55.3676         0.001521   
    238. D(O  12,H  13,H   1,O   0)    177.7922         0.001521   
    239. D(H   7,H  13,O  12,H   1)    -22.6300         0.365804   
    240. D(H   7,H  13,O  12,H  14)   -146.9575         0.365804   
    241. D(O   6,H  13,O  12,H   1)      2.9468         0.365804   
    242. D(H   1,H  13,O  12,H  14)   -124.3275         0.365804   
    243. D(O   6,H  13,H   7,H  11)    -68.1941         0.001511   
    244. D(O   6,H  13,H   7,H   5)   -139.5036         0.001511   
    245. D(O   6,H  13,H   7,H   4)   -157.1464         0.001511   
    246. D(O   6,H  13,H   7,O   3)   -166.9994         0.001511   
    247. D(H   1,H  13,H   7,H  11)     74.0124         0.001511   
    248. D(H   1,H  13,H   7,H   5)      2.7028         0.001511   
    249. D(H   1,H  13,H   7,H   4)    -14.9400         0.001511   
    250. D(H   1,H  13,H   7,O   3)    -24.7930         0.001511   
    251. D(H   1,H  13,H   7,O   6)    142.2064         0.001511   
    252. D(O  12,H  13,H   7,H  11)     92.2308         0.001511   
    253. D(O  12,H  13,H   7,H   5)     20.9213         0.001511   
    254. D(O  12,H  13,H   7,H   4)      3.2785         0.001511   
    255. D(O  12,H  13,H   7,O   3)     -6.5745         0.001511   
    256. D(O  12,H  13,H   7,O   6)    160.4249         0.001511   
    257. D(H   7,H  13,O   6,H  11)     90.4476         0.001839   
    258. D(H   7,H  13,O   6,H   8)   -122.5732         0.001839   
    259. D(H   1,H  13,O   6,H  11)     50.7237         0.001839   
    260. D(H   1,H  13,O   6,H   8)   -162.2971         0.001839   
    261. D(O   6,H  13,O  12,H  14)   -121.3807         0.365804   
    262. D(H   1,H  13,O   6,H   7)    -39.7239         0.001839   
    263. D(O  12,H  13,O   6,H  11)     48.2271         0.001839   
    264. D(O  12,H  13,O   6,H   8)   -164.7938         0.001839   
    265. D(O  12,H  13,O   6,H   7)    -42.2205         0.001839   
    266. D(H  17,O  15,H   5,H  16)   -117.7064         0.001732   
    267. D(H  17,O  15,H   5,H   7)   -163.5248         0.001732   
    268. D(H  17,O  15,H   5,O   3)   -138.4640         0.001732   
    269. D(H  16,O  15,H   5,H   7)    -45.8184         0.001732   
    270. D(H  16,O  15,H   5,O   3)    -20.7576         0.001732   
    271. D(H  11,H  16,O  15,H   5)     41.4049         0.390563   
    272. D(H  11,H  16,O  15,H  17)    178.9443         0.390563   
    273. D(H  10,H  16,O  15,H  17)    114.4750         0.390563   
    274. D(O   9,H  16,O  15,H   5)     14.2252         0.390563   
    275. D(O   9,H  16,O  15,H  17)    151.7646         0.390563   
    276. D(H  10,H  16,H  11,H   7)    101.8932         0.001517   
    277. D(H  10,H  16,H  11,O   6)    113.4904         0.001517   
    278. D(H  10,H  16,H  11,O   9)    -38.7296         0.001517   
    279. D(O   9,H  16,H  11,H   7)    140.6228         0.001517   
    280. D(O   9,H  16,H  11,O   6)    152.2200         0.001517   
    281. D(H   5,H  16,H  11,H   7)     15.3011         0.001517   
    282. D(H   5,H  16,H  11,O   6)     26.8983         0.001517   
    283. D(O  15,H  16,H  11,H   7)    -19.0168         0.001517   
    284. D(O  15,H  16,H  11,O   6)     -7.4196         0.001517   
    285. D(O  15,H  16,H  11,O   9)   -159.6396         0.001517   
    286. D(H  11,H  16,H  10,O   0)   -116.2340         0.001511   
    287. D(H  11,H  16,H  10,O   9)     40.3848         0.001511   
    288. D(O   9,H  16,H  10,H   1)   -130.2674         0.001511   
    289. D(O   9,H  16,H  10,O   0)   -156.6188         0.001511   
    290. D(H   5,H  16,H  10,H   1)      1.6473         0.001511   
    291. D(H   5,H  16,H  10,O   0)    -24.7041         0.001511   
    292. D(H   5,H  16,H  10,O   9)    131.9147         0.001511   
    293. D(O  15,H  16,H  10,H   1)     21.1851         0.001511   
    294. D(O  15,H  16,H  10,O   0)     -5.1663         0.001511   
    295. D(O  15,H  16,H  10,O   9)    151.4525         0.001511   
    296. D(H  11,H  16,O   9,H  10)   -106.4096         0.001826   
    297. D(H  11,H  16,H  10,H   1)    -89.8826         0.001511   
    298. D(H  10,H  16,O   9,H  11)    106.4096         0.001826   
    299. D(H   5,H  16,O   9,H  11)     56.7787         0.001826   
    300. D(H   5,H  16,O   9,H  10)    -49.6310         0.001826   
    301. D(H   5,H  16,H  11,O   9)   -125.3217         0.001517   
    302. D(O  15,H  16,O   9,H  11)     44.3765         0.001826   
    303. D(O  15,H  16,O   9,H  10)    -62.0332         0.001826   
    304. D(H  11,H  16,H   5,O  15)   -154.0594         0.001521   
    305. D(H  11,H  16,H   5,H   7)    -16.0232         0.001521   
    306. D(H  11,H  16,H   5,O   3)     15.6973         0.001521   
    307. D(H  10,H  16,H   5,O  15)    166.1975         0.001521   
    308. D(H  10,H  16,H   5,H   7)    -55.7663         0.001521   
    309. D(H   5,H  16,O  15,H  17)    137.5394         0.390563   
    310. D(H  10,H  16,H   5,O   3)    -24.0459         0.001521   
    311. D(O   9,H  16,H   5,O  15)   -175.2447         0.001521   
    312. D(O   9,H  16,H   5,H   7)    -37.2084         0.001521   
    313. D(H  10,H  16,O  15,H   5)    -23.0643         0.390563   
    314. D(O   9,H  16,H   5,O   3)     -5.4880         0.001521   
    315. D(O  15,H  16,H   5,H   7)    138.0362         0.001521   
    316. D(O  15,H  16,H   5,O   3)    169.7567         0.001521   
    -----------------------------------------------------------------

Number of atoms                         .... 18
Number of degrees of freedom            .... 316

         *************************************************************
         *                GEOMETRY OPTIMIZATION CYCLE   1            *
         *************************************************************
---------------------------------
CARTESIAN COORDINATES (ANGSTROEM)
---------------------------------
  O      0.862065   -1.728538   -0.448765
  H      1.679686   -1.216793   -0.290371
  H      1.141594   -2.607406   -0.709910
  O     -0.751083    0.359939   -1.648316
  H     -0.283702   -0.473988   -1.502279
  H     -1.624922    0.215720   -1.247934
  O      0.590537    1.756310    0.198185
  H      0.069166    1.374794   -0.548651
  H      0.493944    2.707937    0.134574
  O     -0.675492   -0.446436    1.665684
  H     -0.188802   -1.063799    1.102054
  H     -0.260662    0.405216    1.474464
  O      2.803582    0.112403    0.084677
  H      2.165098    0.844551    0.158067
  H      3.282044    0.106258    0.915526
  O     -2.901034    0.010949    0.089937
  H     -2.258917   -0.224605    0.785219
  H     -3.643112   -0.584893    0.198028

----------------------------
CARTESIAN COORDINATES (A.U.)
----------------------------
  NO LB      ZA    FRAG     MASS         X           Y           Z
   0 O     8.0000    0    15.999    1.629067   -3.266463   -0.848043
   1 H     1.0000    0     1.008    3.174147   -2.299406   -0.548722
   2 H     1.0000    0     1.008    2.157300   -4.927283   -1.341535
   3 O     8.0000    0    15.999   -1.419341    0.680186   -3.114866
   4 H     1.0000    0     1.008   -0.536119   -0.895708   -2.838896
   5 H     1.0000    0     1.008   -3.070658    0.407652   -2.358253
   6 O     8.0000    0    15.999    1.115953    3.318945    0.374515
   7 H     1.0000    0     1.008    0.130705    2.597984   -1.036800
   8 H     1.0000    0     1.008    0.933419    5.117259    0.254308
   9 O     8.0000    0    15.999   -1.276495   -0.843642    3.147687
  10 H     1.0000    0     1.008   -0.356784   -2.010289    2.082580
  11 H     1.0000    0     1.008   -0.492580    0.765747    2.786333
  12 O     8.0000    0    15.999    5.298002    0.212411    0.160016
  13 H     1.0000    0     1.008    4.091442    1.595970    0.298703
  14 H     1.0000    0     1.008    6.202164    0.200799    1.730093
  15 O     8.0000    0    15.999   -5.482160    0.020691    0.169956
  16 H     1.0000    0     1.008   -4.268734   -0.424442    1.483849
  17 H     1.0000    0     1.008   -6.884484   -1.105288    0.374219

--------------------------------
INTERNAL COORDINATES (ANGSTROEM)
--------------------------------
 O      0   0   0     0.000000000000     0.00000000     0.00000000
 H      1   0   0     0.977484375273     0.00000000     0.00000000
 H      1   2   0     0.958510372552   106.27493477     0.00000000
 O      1   2   3     2.898776509328    98.93693428   217.36379635
 H      4   1   2     0.967060518199    17.68774027   124.66962170
 H      4   1   2     0.971956513331   102.88229172   220.86105108
 O      4   1   2     2.675698439107    79.12826050   323.03614401
 H      7   4   1     0.987494905705     8.78327180   161.28394938
 H      7   4   1     0.958629497824   114.94475867   170.52118116
 O      1   2   3     2.911831320708    95.36473628   144.88244721
 H     10   1   2     0.967307090209    14.11441329   246.09798043
 H     10   1   2     0.966416135215    91.01309885    37.47709467
 O      2   1   3     1.780608106108   162.34472926   176.95939705
 H     13   2   1     0.974211786143    99.39275309   354.94041717
 H     13   2   1     0.958787623653   119.51943813   108.78066515
 O      6   4   1     1.860185961571   158.33582154    55.78272716
 H     16   6   4     0.975303536408    95.02843990   339.24242281
 H     16   6   4     0.957805361923   132.93336833   221.53603047

---------------------------
INTERNAL COORDINATES (A.U.)
---------------------------
 O      0   0   0     0.000000000000     0.00000000     0.00000000
 H      1   0   0     1.847177769452     0.00000000     0.00000000
 H      1   2   0     1.811322100646   106.27493477     0.00000000
 O      1   2   3     5.477893726075    98.93693428   217.36379635
 H      4   1   2     1.827479534324    17.68774027   124.66962170
 H      4   1   2     1.836731624276   102.88229172   220.86105108
 O      4   1   2     5.056337266874    79.12826050   323.03614401
 H      7   4   1     1.866094930425     8.78327180   161.28394938
 H      7   4   1     1.811547214787   114.94475867   170.52118116
 O      1   2   3     5.502563744312    95.36473628   144.88244721
 H     10   1   2     1.827945487896    14.11441329   246.09798043
 H     10   1   2     1.826261826959    91.01309885    37.47709467
 O      2   1   3     3.364861672384   162.34472926   176.95939705
 H     13   2   1     1.840993472249    99.39275309   354.94041717
 H     13   2   1     1.811846029297   119.51943813   108.78066515
 O      6   4   1     3.515242025534   158.33582154    55.78272716
 H     16   6   4     1.843056581255    95.02843990   339.24242281
 H     16   6   4     1.809989823636   132.93336833   221.53603047

---------------------
BASIS SET INFORMATION
---------------------
There are 2 groups of distinct atoms

 Group   1 Type O   : 19s6p3d2f contracted to 5s4p3d2f pattern {88111/3111/111/11}
 Group   2 Type H   : 6s3p2d contracted to 4s3p2d pattern {3111/111/11}

Atom   0O    basis set group =>   1
Atom   1H    basis set group =>   2
Atom   2H    basis set group =>   2
Atom   3O    basis set group =>   1
Atom   4H    basis set group =>   2
Atom   5H    basis set group =>   2
Atom   6O    basis set group =>   1
Atom   7H    basis set group =>   2
Atom   8H    basis set group =>   2
Atom   9O    basis set group =>   1
Atom  10H    basis set group =>   2
Atom  11H    basis set group =>   2
Atom  12O    basis set group =>   1
Atom  13H    basis set group =>   2
Atom  14H    basis set group =>   2
Atom  15O    basis set group =>   1
Atom  16H    basis set group =>   2
Atom  17H    basis set group =>   2
---------------------------------
AUXILIARY/C BASIS SET INFORMATION
---------------------------------
There are 2 groups of distinct atoms

 Group   1 Type O   : 8s6p5d3f1g contracted to 8s6p4d3f1g pattern {11111111/111111/2111/111/1}
 Group   2 Type H   : 4s3p2d contracted to 4s2p1d pattern {1111/21/2}

Atom   0O    basis set group =>   1
Atom   1H    basis set group =>   2
Atom   2H    basis set group =>   2
Atom   3O    basis set group =>   1
Atom   4H    basis set group =>   2
Atom   5H    basis set group =>   2
Atom   6O    basis set group =>   1
Atom   7H    basis set group =>   2
Atom   8H    basis set group =>   2
Atom   9O    basis set group =>   1
Atom  10H    basis set group =>   2
Atom  11H    basis set group =>   2
Atom  12O    basis set group =>   1
Atom  13H    basis set group =>   2
Atom  14H    basis set group =>   2
Atom  15O    basis set group =>   1
Atom  16H    basis set group =>   2
Atom  17H    basis set group =>   2
----------------------------------
AUXILIARY/JK BASIS SET INFORMATION
----------------------------------
There are 2 groups of distinct atoms

 Group   1 Type O   : 14s10p6d2f1g contracted to 10s8p4d2f1g pattern {5111111111/31111111/3111/11/1}
 Group   2 Type H   : 4s2p2d contracted to 2s2p2d pattern {31/11/11}

Atom   0O    basis set group =>   1
Atom   1H    basis set group =>   2
Atom   2H    basis set group =>   2
Atom   3O    basis set group =>   1
Atom   4H    basis set group =>   2
Atom   5H    basis set group =>   2
Atom   6O    basis set group =>   1
Atom   7H    basis set group =>   2
Atom   8H    basis set group =>   2
Atom   9O    basis set group =>   1
Atom  10H    basis set group =>   2
Atom  11H    basis set group =>   2
Atom  12O    basis set group =>   1
Atom  13H    basis set group =>   2
Atom  14H    basis set group =>   2
Atom  15O    basis set group =>   1
Atom  16H    basis set group =>   2
Atom  17H    basis set group =>   2


           ************************************************************
           *        Program running with 24 parallel MPI-processes    *
           *              working on a common directory               *
           ************************************************************
------------------------------------------------------------------------------
                           ORCA GTO INTEGRAL CALCULATION
                           -- RI-GTO INTEGRALS CHOSEN --
------------------------------------------------------------------------------

                         BASIS SET STATISTICS AND STARTUP INFO

Gaussian basis set:
 # of primitive gaussian shells          ...  312
 # of primitive gaussian functions       ...  696
 # of contracted shells                  ...  192
 # of contracted basis functions         ...  552
 Highest angular momentum                ...    3
 Maximum contraction depth               ...    8
Auxiliary gaussian basis set:
 # of primitive gaussian shells          ...  294
 # of primitive gaussian functions       ...  822
 # of contracted shells                  ...  222
 # of contracted aux-basis functions     ...  678
 Highest angular momentum                ...    4
 Maximum contraction depth               ...    5
Ratio of auxiliary to basis functions    ...  1.23
Integral package used                  ... LIBINT
 One Electron integrals                  ... done
 Ordering auxiliary basis shells         ... done
 Integral threshhold             Thresh  ...  2.500e-11
 Primitive cut-off               TCut    ...  2.500e-12
 Pre-screening matrix                    ... done
 Shell pair data                         ... 
 Ordering of the shell pairs             ... done (   0.003 sec) 17560 of 18528 pairs
 Determination of significant pairs      ... done (   0.000 sec)
 Creation of shell pair data             ... done (   0.002 sec)
 Storage of shell pair data              ... done (   0.002 sec)
 Shell pair data done in (   0.007 sec)
 Computing two index integrals           ... done
 Cholesky decomposition of the V-matrix  ... done


Timings:
 Total evaluation time                   ...   0.567 sec (  0.009 min)
 One electron matrix time                ...   0.134 sec (  0.002 min) = 23.6%
 Schwartz matrix evaluation time         ...   0.296 sec (  0.005 min) = 52.2%
 Two index repulsion integral time       ...   0.011 sec (  0.000 min) =  1.9%
 Cholesky decomposition of V             ...   0.094 sec (  0.002 min) = 16.5%
 Three index repulsion integral time     ...   0.000 sec (  0.000 min) =  0.0%



           ************************************************************
           *        Program running with 24 parallel MPI-processes    *
           *              working on a common directory               *
           ************************************************************
-------------------------------------------------------------------------------
                                 ORCA SCF
-------------------------------------------------------------------------------

------------
SCF SETTINGS
------------
Hamiltonian:
 Density Functional     Method          .... DFT(GTOs)
 Exchange Functional    Exchange        .... B88
   X-Alpha parameter    XAlpha          ....  0.666667
   Becke's b parameter  XBeta           ....  0.004200
 Correlation Functional Correlation     .... LYP
 LDA part of GGA corr.  LDAOpt          .... VWN-5
 Gradients option       PostSCFGGA      .... off
 Hybrid DFT is turned on
   Fraction HF Exchange ScalHFX         ....  0.710000
   Scaling of DF-GGA-X  ScalDFX         ....  0.290000
   Scaling of DF-GGA-C  ScalDFC         ....  0.540000
   Scaling of DF-LDA-C  ScalLDAC        ....  0.540000
   Perturbative correction              ....  1.000000
   Density functional embedding theory  .... OFF
 RI-approximation to the Coulomb term is turned on
   Number of auxiliary basis functions  .... 678
   RI-JK (J+K treated both via RI)      .... on


General Settings:
 Integral files         IntName         .... 08_H2O_6_cage
 Hartree-Fock type      HFTyp           .... RHF
 Total Charge           Charge          ....    0
 Multiplicity           Mult            ....    1
 Number of Electrons    NEL             ....   60
 Basis Dimension        Dim             ....  552
 Nuclear Repulsion      ENuc            ....    300.0964983793 Eh

Convergence Acceleration:
 DIIS                   CNVDIIS         .... on
   Start iteration      DIISMaxIt       ....    12
   Startup error        DIISStart       ....  0.200000
   # of expansion vecs  DIISMaxEq       ....     5
   Bias factor          DIISBfac        ....   1.050
   Max. coefficient     DIISMaxC        ....  10.000
 Newton-Raphson         CNVNR           .... off
 SOSCF                  CNVSOSCF        .... on
   Start iteration      SOSCFMaxIt      ....   150
   Startup grad/error   SOSCFStart      ....  0.003300
 Level Shifting         CNVShift        .... on
   Level shift para.    LevelShift      ....    0.2500
   Turn off err/grad.   ShiftErr        ....    0.0010
 Zerner damping         CNVZerner       .... off
 Static damping         CNVDamp         .... on
   Fraction old density DampFac         ....    0.7000
   Max. Damping (<1)    DampMax         ....    0.9800
   Min. Damping (>=0)   DampMin         ....    0.0000
   Turn off err/grad.   DampErr         ....    0.1000
 Fernandez-Rico         CNVRico         .... off

SCF Procedure:
 Maximum # iterations   MaxIter         ....   125
 SCF integral mode      SCFMode         .... Direct
   Integral package                     .... LIBINT
 Reset frequency        DirectResetFreq ....    20
 Integral Threshold     Thresh          ....  2.500e-11 Eh
 Primitive CutOff       TCut            ....  2.500e-12 Eh

Convergence Tolerance:
 Convergence Check Mode ConvCheckMode   .... Total+1el-Energy
 Convergence forced     ConvForced      .... 0
 Energy Change          TolE            ....  1.000e-08 Eh
 1-El. energy change                    ....  1.000e-05 Eh
 Orbital Gradient       TolG            ....  1.000e-05
 Orbital Rotation angle TolX            ....  1.000e-05
 DIIS Error             TolErr          ....  5.000e-07


Diagonalization of the overlap matrix:
Smallest eigenvalue                        ... 3.507e-05
Time for diagonalization                   ...    0.056 sec
Threshold for overlap eigenvalues          ... 1.000e-08
Number of eigenvalues below threshold      ... 0
Time for construction of square roots      ...    0.055 sec
Total time needed                          ...    0.113 sec

-------------------
DFT GRID GENERATION
-------------------

General Integration Accuracy     IntAcc      ...  4.670
Radial Grid Type                 RadialGrid  ... Gauss-Chebyshev
Angular Grid (max. acc.)         AngularGrid ... Lebedev-302
Angular grid pruning method      GridPruning ... 3 (G Style)
Weight generation scheme         WeightScheme... Becke
Basis function cutoff            BFCut       ...    1.0000e-11
Integration weight cutoff        WCut        ...    1.0000e-14
Grids for H and He will be reduced by one unit

# of grid points (after initial pruning)     ...  78000 (   0.0 sec)
# of grid points (after weights+screening)   ...  71821 (   0.0 sec)
nearest neighbour list constructed           ...    0.0 sec
Grid point re-assignment to atoms done       ...    0.0 sec
Grid point division into batches done        ...    0.2 sec
Reduced shell lists constructed in    0.3 sec

Total number of grid points                  ...    71821
Total number of batches                      ...     1132
Average number of points per batch           ...       63
Average number of grid points per atom       ...     3990
Average number of shells per batch           ...   145.08 (75.56%)
Average number of basis functions per batch  ...   406.39 (73.62%)
Average number of large shells per batch     ...   117.55 (81.02%)
Average number of large basis fcns per batch ...   321.27 (79.05%)
Average number of aux-shells per batch       ...   145.08 (65.35%)
Average number of aux functions per batch    ...   406.39 (59.94%)
Maximum spatial batch extension              ...   2.85,  2.34,  2.33 au
Average spatial batch extension              ...   0.04,  0.04,  0.04 au

Time for grid setup =    0.379 sec

------------------------------
INITIAL GUESS: MODEL POTENTIAL
------------------------------
Loading Hartree-Fock densities                     ... done
Calculating cut-offs                               ... done
Setting up the integral package                    ... done
Initializing the effective Hamiltonian             ... done
Starting the Coulomb interaction                   ... done (   0.0 sec)
Reading the grid                                   ... done
Mapping shells                                     ... done
Starting the XC term evaluation                    ... done (   0.2 sec)
  promolecular density results
     # of electrons  =     59.993214953
     EX              =    -52.747916613
     EC              =     -0.250950093
     EX+EC           =    -52.998866706
Transforming the Hamiltonian                       ... done (   0.0 sec)
Diagonalizing the Hamiltonian                      ... done (   0.0 sec)
Back transforming the eigenvectors                 ... done (   0.0 sec)
Now organizing SCF variables                       ... done
                      ------------------
                      INITIAL GUESS DONE (   0.8 sec)
                      ------------------
--------------
SCF ITERATIONS
--------------
ITER       Energy         Delta-E        Max-DP      RMS-DP      [F,P]     Damp
  0   -457.1313922985   0.000000000000 0.03906517  0.00054349  0.3470821 0.7000
  1   -456.6847237150   0.446668583470 0.03829399  0.00057204  0.2826277 0.7000
                               ***Turning on DIIS***
  2   -456.8090786622  -0.124354947228 0.01695293  0.00030174  0.1307968 0.7000
  3   -457.1494098398  -0.340331177598 0.02925855  0.00029595  0.0415340 0.0000
  4   -457.5681874829  -0.418777643065 0.01013435  0.00016885  0.0682371 0.0000
  5   -457.5851120213  -0.016924538417 0.00779969  0.00011509  0.0367916 0.0000
  6   -457.5904125830  -0.005300561669 0.00456273  0.00006561  0.0160101 0.0000
  7   -457.5916169421  -0.001204359111 0.00137825  0.00002243  0.0049405 0.0000
                      *** Initiating the SOSCF procedure ***
                           *** Shutting down DIIS ***
                      *** Re-Reading the Fockian *** 
                      *** Removing any level shift *** 
ITER      Energy       Delta-E        Grad      Rot      Max-DP    RMS-DP
  8   -457.59173691  -0.0001199653  0.000160  0.000160  0.000375  0.000006
  9   -457.59174212  -0.0000052102  0.000028  0.000048  0.000106  0.000002
 10   -457.59174225  -0.0000001299  0.000019  0.000023  0.000048  0.000001
                  ***Gradient check signals convergence***
              ***Rediagonalizing the Fockian in SOSCF/NRSCF***

               *****************************************************
               *                     SUCCESS                       *
               *           SCF CONVERGED AFTER  11 CYCLES          *
               *****************************************************


----------------
TOTAL SCF ENERGY
----------------

Total Energy       :         -457.59174232 Eh          -12451.70434 eV

Components:
Nuclear Repulsion  :          300.09649838 Eh            8166.04087 eV
Electronic Energy  :         -757.68824070 Eh          -20617.74522 eV
One Electron Energy:        -1228.35390891 Eh          -33425.20917 eV
Two Electron Energy:          470.66566821 Eh           12807.46395 eV

Virial components:
Potential Energy   :         -913.71576568 Eh          -24863.47002 eV
Kinetic Energy     :          456.12402336 Eh           12411.76568 eV
Virial Ratio       :            2.00321781


DFT components:
N(Alpha)           :       29.999862232625 electrons
N(Beta)            :       29.999862232625 electrons
N(Total)           :       59.999724465250 electrons
E(X)               :      -15.637189394495 Eh       
E(C)               :       -1.124327954115 Eh       
E(XC)              :      -16.761517348610 Eh       
DFET-embed. en.    :        0.000000000000 Eh       

---------------
SCF CONVERGENCE
---------------

  Last Energy change         ...   -7.2475e-08  Tolerance :   1.0000e-08
  Last MAX-Density change    ...    2.4033e-05  Tolerance :   1.0000e-07
  Last RMS-Density change    ...    2.3363e-07  Tolerance :   5.0000e-09
  Last Orbital Gradient      ...    1.4828e-06  Tolerance :   1.0000e-05
  Last Orbital Rotation      ...    1.7526e-06  Tolerance :   1.0000e-05

             **** THE GBW FILE WAS UPDATED (08_H2O_6_cage.gbw) ****
             **** DENSITY FILE WAS UPDATED (08_H2O_6_cage.scfp) ****
             **** ENERGY FILE WAS UPDATED (08_H2O_6_cage.en.tmp) ****
             **** THE GBW FILE WAS UPDATED (08_H2O_6_cage.gbw) ****
             **** DENSITY FILE WAS UPDATED (08_H2O_6_cage.scfp) ****
----------------
ORBITAL ENERGIES
----------------

  NO   OCC          E(Eh)            E(eV) 
   0   2.0000     -20.064929      -545.9945 
   1   2.0000     -20.060676      -545.8787 
   2   2.0000     -20.060460      -545.8729 
   3   2.0000     -20.042871      -545.3942 
   4   2.0000     -20.040185      -545.3212 
   5   2.0000     -20.035920      -545.2051 
   6   2.0000      -1.256259       -34.1846 
   7   2.0000      -1.244070       -33.8529 
   8   2.0000      -1.237759       -33.6811 
   9   2.0000      -1.228931       -33.4409 
  10   2.0000      -1.219987       -33.1975 
  11   2.0000      -1.210696       -32.9447 
  12   2.0000      -0.684600       -18.6289 
  13   2.0000      -0.671705       -18.2780 
  14   2.0000      -0.661154       -17.9909 
  15   2.0000      -0.657392       -17.8885 
  16   2.0000      -0.641712       -17.4619 
  17   2.0000      -0.638056       -17.3624 
  18   2.0000      -0.571096       -15.5403 
  19   2.0000      -0.539693       -14.6858 
  20   2.0000      -0.532029       -14.4772 
  21   2.0000      -0.515384       -14.0243 
  22   2.0000      -0.513906       -13.9841 
  23   2.0000      -0.489781       -13.3276 
  24   2.0000      -0.459588       -12.5060 
  25   2.0000      -0.455825       -12.4036 
  26   2.0000      -0.452272       -12.3070 
  27   2.0000      -0.438445       -11.9307 
  28   2.0000      -0.431800       -11.7499 
  29   2.0000      -0.427988       -11.6461 
  30   0.0000       0.008396         0.2285 
  31   0.0000       0.022208         0.6043 
  32   0.0000       0.025448         0.6925 
  33   0.0000       0.034946         0.9509 
  34   0.0000       0.049272         1.3408 
  35   0.0000       0.056971         1.5503 
  36   0.0000       0.059735         1.6255 
  37   0.0000       0.061394         1.6706 
  38   0.0000       0.065223         1.7748 
  39   0.0000       0.077219         2.1012 
  40   0.0000       0.082215         2.2372 
  41   0.0000       0.089905         2.4464 
  42   0.0000       0.108676         2.9572 
  43   0.0000       0.122908         3.3445 
  44   0.0000       0.129812         3.5324 
  45   0.0000       0.136243         3.7074 
  46   0.0000       0.146032         3.9737 
  47   0.0000       0.147924         4.0252 
  48   0.0000       0.156968         4.2713 
  49   0.0000       0.161439         4.3930 
  50   0.0000       0.168267         4.5788 
  51   0.0000       0.170221         4.6320 
  52   0.0000       0.180509         4.9119 
  53   0.0000       0.187823         5.1109 
  54   0.0000       0.188949         5.1416 
  55   0.0000       0.191920         5.2224 
  56   0.0000       0.194969         5.3054 
  57   0.0000       0.201080         5.4717 
  58   0.0000       0.202884         5.5208 
  59   0.0000       0.209098         5.6898 
  60   0.0000       0.212252         5.7757 
  61   0.0000       0.233039         6.3413 
  62   0.0000       0.235607         6.4112 
  63   0.0000       0.243835         6.6351 
  64   0.0000       0.246806         6.7159 
  65   0.0000       0.255392         6.9496 
  66   0.0000       0.262166         7.1339 
  67   0.0000       0.269840         7.3427 
  68   0.0000       0.277193         7.5428 
  69   0.0000       0.282998         7.7008 
  70   0.0000       0.287230         7.8159 
  71   0.0000       0.308316         8.3897 
  72   0.0000       0.323486         8.8025 
  73   0.0000       0.328153         8.9295 
  74   0.0000       0.340108         9.2548 
  75   0.0000       0.346219         9.4211 
  76   0.0000       0.350451         9.5363 
  77   0.0000       0.355376         9.6703 
  78   0.0000       0.360801         9.8179 
  79   0.0000       0.364620         9.9218 
  80   0.0000       0.374012        10.1774 
  81   0.0000       0.375959        10.2304 
  82   0.0000       0.380456        10.3527 
  83   0.0000       0.381899        10.3920 
  84   0.0000       0.388493        10.5714 
  85   0.0000       0.392423        10.6784 
  86   0.0000       0.404020        10.9939 
  87   0.0000       0.406282        11.0555 
  88   0.0000       0.408177        11.1071 
  89   0.0000       0.414023        11.2661 
  90   0.0000       0.425464        11.5775 
  91   0.0000       0.429829        11.6962 
  92   0.0000       0.430716        11.7204 
  93   0.0000       0.436258        11.8712 
  94   0.0000       0.442022        12.0280 
  95   0.0000       0.446343        12.1456 
  96   0.0000       0.451550        12.2873 
  97   0.0000       0.462780        12.5929 
  98   0.0000       0.470248        12.7961 
  99   0.0000       0.474129        12.9017 
 100   0.0000       0.479449        13.0465 
 101   0.0000       0.486656        13.2426 
 102   0.0000       0.488119        13.2824 
 103   0.0000       0.493981        13.4419 
 104   0.0000       0.504498        13.7281 
 105   0.0000       0.511412        13.9162 
 106   0.0000       0.521502        14.1908 
 107   0.0000       0.537459        14.6250 
 108   0.0000       0.539464        14.6796 
 109   0.0000       0.553948        15.0737 
 110   0.0000       0.560541        15.2531 
 111   0.0000       0.571329        15.5466 
 112   0.0000       0.576962        15.6999 
 113   0.0000       0.586531        15.9603 
 114   0.0000       0.603888        16.4326 
 115   0.0000       0.617778        16.8106 
 116   0.0000       0.632963        17.2238 
 117   0.0000       0.645432        17.5631 
 118   0.0000       0.650207        17.6930 
 119   0.0000       0.651701        17.7337 
 120   0.0000       0.668819        18.1995 
 121   0.0000       0.680426        18.5153 
 122   0.0000       0.695528        18.9263 
 123   0.0000       0.700208        19.0536 
 124   0.0000       0.705085        19.1863 
 125   0.0000       0.715730        19.4760 
 126   0.0000       0.727902        19.8072 
 127   0.0000       0.732344        19.9281 
 128   0.0000       0.739560        20.1244 
 129   0.0000       0.744890        20.2695 
 130   0.0000       0.762154        20.7393 
 131   0.0000       0.768548        20.9133 
 132   0.0000       0.776781        21.1373 
 133   0.0000       0.786301        21.3963 
 134   0.0000       0.796249        21.6670 
 135   0.0000       0.799247        21.7486 
 136   0.0000       0.818162        22.2633 
 137   0.0000       0.822400        22.3787 
 138   0.0000       0.825456        22.4618 
 139   0.0000       0.839376        22.8406 
 140   0.0000       0.843046        22.9405 
 141   0.0000       0.851415        23.1682 
 142   0.0000       0.854774        23.2596 
 143   0.0000       0.867303        23.6005 
 144   0.0000       0.878874        23.9154 
 145   0.0000       0.884066        24.0567 
 146   0.0000       0.889073        24.1929 
 147   0.0000       0.894966        24.3533 
 148   0.0000       0.901724        24.5372 
 149   0.0000       0.915268        24.9057 
 150   0.0000       0.920184        25.0395 
 151   0.0000       0.927821        25.2473 
 152   0.0000       0.931955        25.3598 
 153   0.0000       0.932773        25.3821 
 154   0.0000       0.941966        25.6322 
 155   0.0000       0.944822        25.7099 
 156   0.0000       0.953974        25.9590 
 157   0.0000       0.959723        26.1154 
 158   0.0000       0.976759        26.5790 
 159   0.0000       0.984437        26.7879 
 160   0.0000       0.987533        26.8721 
 161   0.0000       0.992692        27.0125 
 162   0.0000       0.997868        27.1534 
 163   0.0000       1.008333        27.4381 
 164   0.0000       1.016064        27.6485 
 165   0.0000       1.025105        27.8945 
 166   0.0000       1.028039        27.9744 
 167   0.0000       1.042782        28.3755 
 168   0.0000       1.055013        28.7084 
 169   0.0000       1.062057        28.9000 
 170   0.0000       1.070810        29.1382 
 171   0.0000       1.085617        29.5411 
 172   0.0000       1.088615        29.6227 
 173   0.0000       1.091711        29.7070 
 174   0.0000       1.106532        30.1103 
 175   0.0000       1.111616        30.2486 
 176   0.0000       1.120233        30.4831 
 177   0.0000       1.128800        30.7162 
 178   0.0000       1.137867        30.9629 
 179   0.0000       1.139027        30.9945 
 180   0.0000       1.150462        31.3057 
 181   0.0000       1.163582        31.6627 
 182   0.0000       1.172631        31.9089 
 183   0.0000       1.177815        32.0500 
 184   0.0000       1.186477        32.2857 
 185   0.0000       1.195494        32.5310 
 186   0.0000       1.201919        32.7059 
 187   0.0000       1.209948        32.9244 
 188   0.0000       1.211930        32.9783 
 189   0.0000       1.220620        33.2148 
 190   0.0000       1.226320        33.3699 
 191   0.0000       1.230366        33.4799 
 192   0.0000       1.240125        33.7455 
 193   0.0000       1.244790        33.8725 
 194   0.0000       1.254169        34.1277 
 195   0.0000       1.267154        34.4810 
 196   0.0000       1.277798        34.7706 
 197   0.0000       1.287242        35.0276 
 198   0.0000       1.296965        35.2922 
 199   0.0000       1.302947        35.4550 
 200   0.0000       1.318975        35.8911 
 201   0.0000       1.333783        36.2941 
 202   0.0000       1.336436        36.3663 
 203   0.0000       1.339287        36.4439 
 204   0.0000       1.359319        36.9889 
 205   0.0000       1.366231        37.1770 
 206   0.0000       1.372975        37.3606 
 207   0.0000       1.395776        37.9810 
 208   0.0000       1.399162        38.0731 
 209   0.0000       1.413966        38.4760 
 210   0.0000       1.433118        38.9971 
 211   0.0000       1.437752        39.1232 
 212   0.0000       1.446100        39.3504 
 213   0.0000       1.452337        39.5201 
 214   0.0000       1.452628        39.5280 
 215   0.0000       1.475743        40.1570 
 216   0.0000       1.485609        40.4255 
 217   0.0000       1.497076        40.7375 
 218   0.0000       1.524926        41.4953 
 219   0.0000       1.531269        41.6680 
 220   0.0000       1.542035        41.9609 
 221   0.0000       1.556030        42.3417 
 222   0.0000       1.563899        42.5559 
 223   0.0000       1.570213        42.7277 
 224   0.0000       1.578302        42.9478 
 225   0.0000       1.590152        43.2702 
 226   0.0000       1.604629        43.6642 
 227   0.0000       1.609786        43.8045 
 228   0.0000       1.615620        43.9633 
 229   0.0000       1.617454        44.0132 
 230   0.0000       1.640287        44.6345 
 231   0.0000       1.646974        44.8164 
 232   0.0000       1.664595        45.2959 
 233   0.0000       1.674604        45.5683 
 234   0.0000       1.680621        45.7320 
 235   0.0000       1.703745        46.3613 
 236   0.0000       1.713746        46.6334 
 237   0.0000       1.724133        46.9161 
 238   0.0000       1.729085        47.0508 
 239   0.0000       1.742665        47.4203 
 240   0.0000       1.748561        47.5808 
 241   0.0000       1.772873        48.2423 
 242   0.0000       1.787246        48.6334 
 243   0.0000       1.793612        48.8067 
 244   0.0000       1.808134        49.2018 
 245   0.0000       1.829440        49.7816 
 246   0.0000       1.835859        49.9563 
 247   0.0000       1.848447        50.2988 
 248   0.0000       1.859248        50.5927 
 249   0.0000       1.870697        50.9043 
 250   0.0000       1.884588        51.2822 
 251   0.0000       1.903314        51.7918 
 252   0.0000       1.927288        52.4442 
 253   0.0000       1.930790        52.5395 
 254   0.0000       1.943914        52.8966 
 255   0.0000       1.963326        53.4248 
 256   0.0000       1.972051        53.6622 
 257   0.0000       1.983758        53.9808 
 258   0.0000       2.001624        54.4670 
 259   0.0000       2.010921        54.7199 
 260   0.0000       2.038294        55.4648 
 261   0.0000       2.047357        55.7114 
 262   0.0000       2.062942        56.1355 
 263   0.0000       2.074973        56.4629 
 264   0.0000       2.126301        57.8596 
 265   0.0000       2.166632        58.9570 
 266   0.0000       2.173085        59.1326 
 267   0.0000       2.206829        60.0509 
 268   0.0000       2.223588        60.5069 
 269   0.0000       2.230672        60.6997 
 270   0.0000       2.267784        61.7096 
 271   0.0000       2.281534        62.0837 
 272   0.0000       2.299538        62.5736 
 273   0.0000       2.310237        62.8647 
 274   0.0000       2.330726        63.4223 
 275   0.0000       2.336454        63.5781 
 276   0.0000       2.352884        64.0252 
 277   0.0000       2.367934        64.4348 
 278   0.0000       2.373137        64.5763 
 279   0.0000       2.383272        64.8521 
 280   0.0000       2.396985        65.2253 
 281   0.0000       2.409166        65.5567 
 282   0.0000       2.424905        65.9850 
 283   0.0000       2.435581        66.2755 
 284   0.0000       2.445784        66.5532 
 285   0.0000       2.458579        66.9013 
 286   0.0000       2.465918        67.1011 
 287   0.0000       2.474616        67.3377 
 288   0.0000       2.476042        67.3765 
 289   0.0000       2.492422        67.8223 
 290   0.0000       2.501062        68.0574 
 291   0.0000       2.516829        68.4864 
 292   0.0000       2.528132        68.7940 
 293   0.0000       2.545975        69.2795 
 294   0.0000       2.556602        69.5687 
 295   0.0000       2.581295        70.2406 
 296   0.0000       2.595875        70.6373 
 297   0.0000       2.603401        70.8421 
 298   0.0000       2.620268        71.3011 
 299   0.0000       2.632178        71.6252 
 300   0.0000       2.635012        71.7023 
 301   0.0000       2.641186        71.8703 
 302   0.0000       2.656496        72.2869 
 303   0.0000       2.673493        72.7494 
 304   0.0000       2.677827        72.8674 
 305   0.0000       2.693884        73.3043 
 306   0.0000       2.697568        73.4045 
 307   0.0000       2.710536        73.7574 
 308   0.0000       2.721928        74.0674 
 309   0.0000       2.730671        74.3053 
 310   0.0000       2.745368        74.7052 
 311   0.0000       2.768243        75.3277 
 312   0.0000       2.772973        75.4564 
 313   0.0000       2.783582        75.7451 
 314   0.0000       2.796638        76.1004 
 315   0.0000       2.804900        76.3252 
 316   0.0000       2.814232        76.5792 
 317   0.0000       2.825630        76.8893 
 318   0.0000       2.844035        77.3901 
 319   0.0000       2.850425        77.5640 
 320   0.0000       2.859962        77.8235 
 321   0.0000       2.870134        78.1003 
 322   0.0000       2.882574        78.4388 
 323   0.0000       2.899407        78.8969 
 324   0.0000       2.913719        79.2863 
 325   0.0000       2.922609        79.5282 
 326   0.0000       2.929177        79.7069 
 327   0.0000       2.937067        79.9217 
 328   0.0000       2.943403        80.0941 
 329   0.0000       2.961081        80.5751 
 330   0.0000       2.968668        80.7816 
 331   0.0000       2.983912        81.1964 
 332   0.0000       3.008260        81.8589 
 333   0.0000       3.014725        82.0348 
 334   0.0000       3.024639        82.3046 
 335   0.0000       3.033797        82.5538 
 336   0.0000       3.051483        83.0351 
 337   0.0000       3.072076        83.5954 
 338   0.0000       3.077459        83.7419 
 339   0.0000       3.107429        84.5574 
 340   0.0000       3.109223        84.6063 
 341   0.0000       3.129094        85.1470 
 342   0.0000       3.140499        85.4573 
 343   0.0000       3.161782        86.0365 
 344   0.0000       3.184373        86.6512 
 345   0.0000       3.220729        87.6405 
 346   0.0000       3.233412        87.9856 
 347   0.0000       3.287443        89.4559 
 348   0.0000       3.787575       103.0652 
 349   0.0000       3.815052       103.8128 
 350   0.0000       3.891206       105.8851 
 351   0.0000       3.918417       106.6255 
 352   0.0000       3.950996       107.5121 
 353   0.0000       3.968885       107.9989 
 354   0.0000       3.986320       108.4733 
 355   0.0000       4.002311       108.9084 
 356   0.0000       4.010100       109.1204 
 357   0.0000       4.018770       109.3563 
 358   0.0000       4.046089       110.0997 
 359   0.0000       4.059222       110.4570 
 360   0.0000       4.071777       110.7987 
 361   0.0000       4.073288       110.8398 
 362   0.0000       4.094993       111.4304 
 363   0.0000       4.120141       112.1147 
 364   0.0000       4.143378       112.7470 
 365   0.0000       4.153584       113.0248 
 366   0.0000       4.172823       113.5483 
 367   0.0000       4.179880       113.7403 
 368   0.0000       4.194329       114.1335 
 369   0.0000       4.212807       114.6363 
 370   0.0000       4.218934       114.8030 
 371   0.0000       4.233253       115.1927 
 372   0.0000       4.257763       115.8596 
 373   0.0000       4.261496       115.9612 
 374   0.0000       4.273001       116.2743 
 375   0.0000       4.296721       116.9197 
 376   0.0000       4.308189       117.2318 
 377   0.0000       4.312115       117.3386 
 378   0.0000       4.326270       117.7238 
 379   0.0000       4.337278       118.0233 
 380   0.0000       4.346626       118.2777 
 381   0.0000       4.355024       118.5062 
 382   0.0000       4.373230       119.0016 
 383   0.0000       4.388427       119.4152 
 384   0.0000       4.406095       119.8959 
 385   0.0000       4.417595       120.2089 
 386   0.0000       4.422063       120.3305 
 387   0.0000       4.435542       120.6972 
 388   0.0000       4.447583       121.0249 
 389   0.0000       4.469137       121.6114 
 390   0.0000       4.482381       121.9718 
 391   0.0000       4.491870       122.2300 
 392   0.0000       4.509240       122.7027 
 393   0.0000       4.514506       122.8459 
 394   0.0000       4.532546       123.3368 
 395   0.0000       4.547379       123.7405 
 396   0.0000       4.554174       123.9254 
 397   0.0000       4.566656       124.2650 
 398   0.0000       4.580594       124.6443 
 399   0.0000       4.599382       125.1555 
 400   0.0000       4.607608       125.3794 
 401   0.0000       4.612917       125.5239 
 402   0.0000       4.624230       125.8317 
 403   0.0000       4.637081       126.1814 
 404   0.0000       4.648570       126.4940 
 405   0.0000       4.651453       126.5725 
 406   0.0000       4.674907       127.2107 
 407   0.0000       4.681295       127.3845 
 408   0.0000       4.716454       128.3412 
 409   0.0000       4.729227       128.6888 
 410   0.0000       4.754628       129.3800 
 411   0.0000       4.765584       129.6781 
 412   0.0000       4.782362       130.1347 
 413   0.0000       4.819960       131.1578 
 414   0.0000       4.829193       131.4090 
 415   0.0000       4.850508       131.9890 
 416   0.0000       4.876858       132.7061 
 417   0.0000       4.895412       133.2109 
 418   0.0000       4.904197       133.4500 
 419   0.0000       4.942720       134.4982 
 420   0.0000       4.979501       135.4991 
 421   0.0000       4.984041       135.6227 
 422   0.0000       5.031188       136.9056 
 423   0.0000       5.039594       137.1343 
 424   0.0000       5.053891       137.5234 
 425   0.0000       5.070205       137.9673 
 426   0.0000       5.089395       138.4895 
 427   0.0000       5.102191       138.8377 
 428   0.0000       5.116282       139.2211 
 429   0.0000       5.141744       139.9140 
 430   0.0000       5.144100       139.9781 
 431   0.0000       5.163512       140.5063 
 432   0.0000       5.176137       140.8498 
 433   0.0000       5.192003       141.2816 
 434   0.0000       5.211572       141.8141 
 435   0.0000       5.231519       142.3569 
 436   0.0000       5.252559       142.9294 
 437   0.0000       5.257155       143.0545 
 438   0.0000       5.272636       143.4757 
 439   0.0000       5.288626       143.9108 
 440   0.0000       5.316063       144.6574 
 441   0.0000       5.326950       144.9537 
 442   0.0000       5.328824       145.0047 
 443   0.0000       5.354215       145.6956 
 444   0.0000       5.368285       146.0785 
 445   0.0000       5.387273       146.5952 
 446   0.0000       5.399286       146.9220 
 447   0.0000       5.418695       147.4502 
 448   0.0000       5.453063       148.3854 
 449   0.0000       5.482136       149.1765 
 450   0.0000       5.502557       149.7322 
 451   0.0000       5.534806       150.6097 
 452   0.0000       5.595563       152.2630 
 453   0.0000       5.630504       153.2138 
 454   0.0000       5.689478       154.8186 
 455   0.0000       5.704632       155.2309 
 456   0.0000       5.737572       156.1273 
 457   0.0000       5.761834       156.7875 
 458   0.0000       5.783059       157.3650 
 459   0.0000       5.806836       158.0120 
 460   0.0000       5.873728       159.8323 
 461   0.0000       5.914887       160.9522 
 462   0.0000       6.203281       168.7998 
 463   0.0000       6.250843       170.0941 
 464   0.0000       6.265296       170.4874 
 465   0.0000       6.315146       171.8439 
 466   0.0000       6.391362       173.9178 
 467   0.0000       6.444603       175.3666 
 468   0.0000       6.450309       175.5218 
 469   0.0000       6.453497       175.6086 
 470   0.0000       6.462342       175.8493 
 471   0.0000       6.508024       177.0923 
 472   0.0000       6.529441       177.6751 
 473   0.0000       6.584118       179.1630 
 474   0.0000       6.731947       183.1856 
 475   0.0000       6.744060       183.5152 
 476   0.0000       6.761007       183.9764 
 477   0.0000       6.766492       184.1256 
 478   0.0000       6.784220       184.6080 
 479   0.0000       6.804278       185.1538 
 480   0.0000       6.834753       185.9831 
 481   0.0000       6.856463       186.5738 
 482   0.0000       6.871943       186.9951 
 483   0.0000       6.903051       187.8416 
 484   0.0000       6.938452       188.8049 
 485   0.0000       6.960312       189.3997 
 486   0.0000       7.026776       191.2083 
 487   0.0000       7.042287       191.6304 
 488   0.0000       7.078160       192.6065 
 489   0.0000       7.100838       193.2236 
 490   0.0000       7.120963       193.7713 
 491   0.0000       7.138832       194.2575 
 492   0.0000       7.154040       194.6713 
 493   0.0000       7.171408       195.1439 
 494   0.0000       7.180661       195.3957 
 495   0.0000       7.195437       195.7978 
 496   0.0000       7.212823       196.2709 
 497   0.0000       7.219082       196.4412 
 498   0.0000       7.222480       196.5337 
 499   0.0000       7.236428       196.9132 
 500   0.0000       7.254089       197.3938 
 501   0.0000       7.267433       197.7569 
 502   0.0000       7.270078       197.8289 
 503   0.0000       7.285096       198.2375 
 504   0.0000       7.298946       198.6144 
 505   0.0000       7.323628       199.2860 
 506   0.0000       7.336454       199.6351 
 507   0.0000       7.341819       199.7811 
 508   0.0000       7.347189       199.9272 
 509   0.0000       7.357254       200.2011 
 510   0.0000       7.375669       200.7022 
 511   0.0000       7.379189       200.7979 
 512   0.0000       7.385537       200.9707 
 513   0.0000       7.392765       201.1673 
 514   0.0000       7.415019       201.7729 
 515   0.0000       7.428333       202.1352 
 516   0.0000       7.444981       202.5882 
 517   0.0000       7.466695       203.1791 
 518   0.0000       7.494706       203.9413 
 519   0.0000       7.546222       205.3431 
 520   0.0000       7.556435       205.6211 
 521   0.0000       7.590743       206.5546 
 522   0.0000       7.636215       207.7920 
 523   0.0000       7.725467       210.2206 
 524   0.0000       7.773886       211.5382 
 525   0.0000       7.777939       211.6485 
 526   0.0000       7.800524       212.2630 
 527   0.0000       7.842234       213.3980 
 528   0.0000       7.856195       213.7779 
 529   0.0000       7.872997       214.2351 
 530   0.0000       7.887273       214.6236 
 531   0.0000       7.900820       214.9922 
 532   0.0000       7.910882       215.2661 
 533   0.0000       7.961615       216.6466 
 534   0.0000       7.970935       216.9002 
 535   0.0000       8.012170       218.0222 
 536   0.0000       8.013878       218.0687 
 537   0.0000       8.032983       218.5886 
 538   0.0000       8.062673       219.3965 
 539   0.0000       8.155857       221.9321 
 540   0.0000       8.783941       239.0232 
 541   0.0000       8.790571       239.2036 
 542   0.0000       8.833146       240.3621 
 543   0.0000       8.847212       240.7449 
 544   0.0000       8.882098       241.6942 
 545   0.0000       8.918450       242.6834 
 546   0.0000      16.432531       447.1519 
 547   0.0000      16.581564       451.2073 
 548   0.0000      16.902563       459.9421 
 549   0.0000      17.346011       472.0090 
 550   0.0000      17.486436       475.8301 
 551   0.0000      17.894680       486.9390 

                    ********************************
                    * MULLIKEN POPULATION ANALYSIS *
                    ********************************

-----------------------
MULLIKEN ATOMIC CHARGES
-----------------------
   0 O :   -0.541177
   1 H :    0.354806
   2 H :    0.127061
   3 O :   -0.550606
   4 H :    0.290647
   5 H :    0.314671
   6 O :   -0.502695
   7 H :    0.359572
   8 H :    0.115404
   9 O :   -0.624822
  10 H :    0.338222
  11 H :    0.332179
  12 O :   -0.468722
  13 H :    0.320518
  14 H :    0.157514
  15 O :   -0.492377
  16 H :    0.303151
  17 H :    0.166655
Sum of atomic charges:   -0.0000000

--------------------------------
MULLIKEN REDUCED ORBITAL CHARGES
--------------------------------
  0 O s       :     3.980309  s :     3.980309
      pz      :     1.790811  p :     4.553590
      px      :     1.498767
      py      :     1.264012
      dz2     :    -0.000012  d :     0.007247
      dxz     :     0.001641
      dyz     :    -0.001431
      dx2y2   :     0.000939
      dxy     :     0.006109
      f0      :     0.000142  f :     0.000031
      f+1     :     0.000119
      f-1     :     0.000135
      f+2     :    -0.000001
      f-2     :    -0.000004
      f+3     :    -0.000044
      f-3     :    -0.000316
  1 H s       :     0.527260  s :     0.527260
      pz      :     0.054342  p :     0.075456
      px      :     0.006828
      py      :     0.014286
      dz2     :     0.001528  d :     0.042478
      dxz     :     0.012400
      dyz     :     0.010768
      dx2y2   :     0.015109
      dxy     :     0.002672
  2 H s       :     0.747759  s :     0.747759
      pz      :     0.060142  p :     0.108709
      px      :     0.031586
      py      :     0.016981
      dz2     :     0.002308  d :     0.016471
      dxz     :     0.000560
      dyz     :     0.007310
      dx2y2   :     0.001648
      dxy     :     0.004644
  3 O s       :     3.959544  s :     3.959544
      pz      :     1.747959  p :     4.579741
      px      :     1.359106
      py      :     1.472677
      dz2     :     0.001725  d :     0.011417
[...]
      1      -0.002663  -0.025288  -0.000419  -0.008132  -0.000652   0.001672
      2      -0.000295  -0.007818  -0.000622  -0.002512  -0.000061   0.000245
      3       0.069497   0.769142   0.018574   0.271152   0.006434  -0.032122
      4       0.038942   0.491234   0.012764   0.179342   0.005623  -0.022499
      5       0.009483   0.146673   0.006095   0.055959   0.000955  -0.006729
      6       0.001868   0.016838   0.002081   0.008162  -0.000216   0.002996
      7      -0.007426  -0.112343  -0.006269  -0.048775   0.001477  -0.001748
      8      -0.002187  -0.033798  -0.002237  -0.014584   0.000042  -0.002406
      9       0.002835  -0.003166   0.012254  -0.000931  -0.044022   0.010980
     10       0.003498   0.002908   0.000851   0.000900  -0.020043  -0.011712
     11      -0.004744  -0.000048  -0.005283   0.000391   0.024636   0.000367
     12       0.033296   0.027754   0.003967   0.006982  -0.154419  -0.113605
     13      -0.064437  -0.049628   0.009356  -0.012612   0.218418   0.197808
     14       0.004663   0.005395  -0.001400   0.000696  -0.021820  -0.029529
     15      -0.093881   0.016692  -0.192858   0.008188   0.853661  -0.058210
     16      -0.013976   0.005003  -0.022860   0.000716   0.103907  -0.013730
     17       0.035027  -0.007214   0.078481  -0.004602  -0.362403   0.024906
     18       0.033058  -0.004422  -0.002134   0.003108   0.003101  -0.000068
     19       0.020706  -0.002607  -0.001190   0.003173   0.001409  -0.000769
     20       0.047287  -0.005126  -0.003419   0.003842   0.004511  -0.000155
     21      -0.514216   0.061874   0.037409  -0.047470  -0.052179   0.003072
     22      -0.368147   0.050672   0.027848  -0.041698  -0.045170   0.002615
     23      -0.739590   0.086911   0.053458  -0.070248  -0.073470   0.002793
     24      -0.001456  -0.002872   0.000750   0.007808   0.000289  -0.000755
     25       0.081553  -0.005134  -0.005482  -0.011896   0.019060   0.006911
     26       0.006023  -0.001976  -0.000925   0.003113   0.000634  -0.001254
     27      -0.000783  -0.001519  -0.005179  -0.001644  -0.001698  -0.036158
     28      -0.002842   0.005147  -0.000889  -0.003017   0.000106   0.003586
     29       0.000731   0.002281   0.005517   0.000472   0.001454   0.032533
     30      -0.003836   0.036095   0.057936   0.000918   0.016024   0.375150
     31      -0.001563  -0.048890  -0.080644  -0.002659  -0.020428  -0.542191
     32      -0.001334  -0.039601  -0.062408   0.000641  -0.019071  -0.439519
     33       0.017599  -0.013965   0.040221   0.023699   0.008843   0.202242
     34       0.040418  -0.028006   0.091013   0.047767   0.018697   0.485930
     35      -0.003368   0.005554  -0.013218  -0.005359  -0.004908  -0.072820
     36       0.005448   0.012047  -0.002389  -0.033759   0.000095   0.000634
     37      -0.006036  -0.014631   0.003129   0.042634  -0.000185  -0.000983
     38      -0.000896  -0.003708   0.000548   0.009391  -0.000124  -0.000493
     39      -0.078387  -0.203039   0.042307   0.603183  -0.003427  -0.015887
     40       0.096189   0.242577  -0.050512  -0.696119   0.002602   0.018068
     41       0.009192   0.020286  -0.001983  -0.044901  -0.000514   0.000080
     42       0.007646   0.034214  -0.005858  -0.077799   0.001278   0.005685
     43      -0.001682   0.001357   0.001194   0.021538  -0.000019  -0.000591
     44       0.008926   0.047394  -0.006241  -0.104531   0.002068   0.007798
     45      -0.002524   0.000411  -0.033282   0.002367  -0.007446   0.004509
     46       0.001159  -0.000330   0.018459  -0.001326   0.003479  -0.003588
     47      -0.002152   0.000376  -0.042935   0.003086  -0.008796   0.007116
     48       0.033820  -0.007136   0.622106  -0.046091   0.138040  -0.111110
     49      -0.015056   0.003706  -0.216627   0.014670  -0.042815   0.033676
     50       0.037571  -0.006487   0.681843  -0.048713   0.143360  -0.111492
     51      -0.005863   0.001779  -0.117782   0.009584  -0.016415   0.034155
     52      -0.004204   0.001820  -0.076270   0.006402  -0.009176   0.022936
     53       0.001799  -0.000233   0.001731  -0.000291  -0.008025  -0.000586
                 48         49         50         51         52         53    
      0       0.002780  -0.002808  -0.001001  -0.000608  -0.009738  -0.000311
      1       0.003107  -0.002802   0.006295   0.008058   0.059059   0.002083
      2       0.001445  -0.000577   0.001873   0.002419   0.017633   0.000582
      3      -0.052833   0.052025  -0.011419  -0.022915  -0.101523  -0.004139
      4      -0.037448   0.037239  -0.003922  -0.010542  -0.031913  -0.001398
      5      -0.012030   0.009316  -0.001522  -0.005265  -0.009523  -0.000143
      6       0.007086  -0.006478   0.027408   0.033270   0.258132   0.009173
      7      -0.013458   0.009803  -0.094968  -0.116141  -0.903414  -0.031908
      8      -0.003121   0.004237  -0.028326  -0.034446  -0.269038  -0.009486
      9      -0.042008   0.009684   0.000288   0.000034   0.000904   0.000608
     10       0.045362  -0.011356   0.000657   0.000012  -0.001287   0.000242
     11      -0.001170   0.000363  -0.000066   0.000004   0.000134  -0.000339
     12       0.450442  -0.111157   0.004451  -0.000100  -0.013349   0.000770
     13      -0.775326   0.190833  -0.006371   0.000045   0.021655  -0.001550
     14       0.114683  -0.030058   0.001230   0.000013  -0.002610   0.000762
     15       0.209357  -0.044045  -0.007947  -0.000419  -0.001353  -0.010361
     16       0.051969  -0.010651  -0.000809  -0.000172  -0.000871  -0.002960
     17      -0.098356   0.020965   0.002835   0.000131   0.000708   0.003835
     18      -0.001584  -0.000623   0.002641  -0.000017  -0.000138   0.000035
     19      -0.001057  -0.002383  -0.061287   0.010390   0.005176  -0.001862
     20      -0.002274  -0.001731  -0.000903   0.000497   0.000151  -0.000127
     21       0.027241   0.018061   0.037018  -0.010323  -0.004227   0.002061
     22       0.024443   0.016059  -0.003797  -0.004037  -0.000367   0.000348
     23       0.038001   0.029291   0.051550  -0.015159  -0.005332   0.002909
     24      -0.000273  -0.002313  -0.079529   0.013935   0.006606  -0.002368
     25      -0.003497   0.023726   0.973912  -0.162141  -0.081849   0.029644
     26      -0.001732  -0.003545  -0.040209   0.007322   0.003288  -0.001204
     27      -0.010266  -0.001831   0.000368   0.000334   0.000448   0.000922
     28      -0.015511  -0.066572   0.001707   0.000835  -0.001273   0.000195
     29       0.005420  -0.012318  -0.000021  -0.000112  -0.000599  -0.000530
     30       0.028448  -0.296999   0.004370   0.000527  -0.010503  -0.006744
     31      -0.052725   0.372060  -0.004613  -0.000889   0.014207   0.009884
     32      -0.035742   0.335484  -0.004592  -0.000944   0.010922   0.007770
     33       0.136134   0.327574  -0.009919  -0.006446   0.003260  -0.004941
     34       0.297323   0.682734  -0.023185  -0.012572   0.006295  -0.012507
     35      -0.053062  -0.139572   0.004882   0.002968  -0.001881   0.002438
     36       0.000259   0.001129  -0.006361  -0.036023   0.005593   0.000254
     37      -0.000142  -0.002671   0.002150   0.007832  -0.001845  -0.000048
     38      -0.000143  -0.001662  -0.007522  -0.049970   0.007144   0.000313
     39      -0.004801  -0.038016   0.023729   0.067471  -0.018829  -0.000623
     40       0.004593   0.041944  -0.031391  -0.095152   0.023061   0.000387
     41       0.000297   0.002569  -0.005379  -0.034107   0.004762   0.000500
     42       0.001340   0.015277   0.075513   0.501107  -0.071805  -0.003574
     43      -0.000521  -0.000765  -0.003733  -0.028887   0.003449   0.000108
     44       0.002207   0.023985   0.125232   0.828045  -0.119559  -0.005542
     45      -0.000574   0.000570   0.001871  -0.000397   0.001830  -0.053564
     46       0.000177  -0.000572   0.001084  -0.000214   0.001105  -0.034414
     47      -0.000892   0.000925   0.000086  -0.000041   0.000110  -0.000818
     48       0.010931  -0.015229  -0.003675   0.000832  -0.003301   0.064906
     49      -0.004007   0.004590   0.001955  -0.000662   0.002187  -0.051176
     50       0.013688  -0.015043  -0.004283   0.001207  -0.004510   0.099773
     51       0.002647   0.004141  -0.025185   0.005206  -0.025632   0.782090
     52       0.001773   0.003071  -0.019099   0.003997  -0.019598   0.597688
     53      -0.002698   0.000452   0.002603  -0.000541   0.002746  -0.087035


-----------
IR SPECTRUM  
-----------

 Mode    freq (cm**-1)   T**2         TX         TY         TZ
-------------------------------------------------------------------
   6:        50.30    1.258680  ( -1.098212  -0.176699   0.146247)
   7:        57.90    3.370203  ( -1.426423   1.003307   0.573494)
   8:        76.42    0.374013  ( -0.015601  -0.409637   0.453836)
   9:       103.13    3.291068  (  1.333322  -0.330564  -1.184925)
  10:       123.48    0.061651  ( -0.183818   0.049115   0.159531)
  11:       153.28    3.173686  ( -1.743928   0.363790   0.007617)
  12:       182.11   47.343199  (  2.408689  -4.635469  -4.478152)
  13:       195.17   47.262872  (  5.049164  -4.331400  -1.734297)
  14:       214.26   23.026380  ( -4.699481   0.358045   0.901700)
  15:       227.92   12.429252  (  3.072958   1.105017   1.328577)
  16:       236.39   26.262826  (  0.059391   2.775825  -4.307446)
  17:       237.96   22.920333  (  3.452767  -2.846883   1.701172)
  18:       251.10   10.854731  (  2.954787   1.424314   0.308701)
  19:       272.27  121.113618  (-10.216810  -3.934758   1.117176)
  20:       289.26   28.262578  ( -2.923393  -2.892558  -3.368896)
  21:       295.57   77.132237  ( -3.843196   0.718175   7.864242)
  22:       389.06   21.213842  (  1.016651   2.626220   3.644617)
  23:       406.34   97.796324  (  9.145389  -3.096920   2.137118)
  24:       452.07   32.387388  (  4.653361   3.206962  -0.670084)
  25:       468.28   58.257725  ( -2.852153   1.826223  -6.840165)
  26:       486.82   24.796934  ( -0.202995   4.368632  -2.381340)
  27:       552.12  198.875624  ( -4.291130 -12.426274  -5.103875)
  28:       572.03   87.903177  ( -8.861900   2.765215   1.312818)
  29:       641.89  203.588437  ( -5.978152   2.853399 -12.637573)
  30:       702.82   17.842788  ( -1.418253  -3.497770  -1.896563)
  31:       742.39  232.696153  ( -9.098914  -6.359355 -10.462530)
  32:       798.96  199.921426  (  4.331501   4.369188 -12.730661)
  33:       816.18  108.301314  (  9.843508  -2.821295  -1.856596)
  34:       879.33   22.587803  (  2.977463  -0.764965  -3.624548)
  35:      1008.44   77.613930  (  5.299954   0.594265  -7.012223)
  36:      1656.42  117.383537  ( -5.626027  -0.195847   9.257052)
  37:      1664.72   76.779196  (  3.253366   7.810822  -2.277249)
  38:      1678.83   64.508702  (  6.553926  -4.210443   1.956254)
  39:      1692.48   59.120043  (  1.436023   7.162604  -2.398955)
  40:      1704.14   16.979210  (  3.269795  -1.688163  -1.854119)
  41:      1720.12   47.576361  (  4.213619   1.619689  -5.215207)
  42:      3240.18  772.456067  (-17.180246 -13.607873 -17.091548)
  43:      3461.96  689.534223  ( 14.864797  20.610227   6.617445)
  44:      3515.63  588.871610  ( 19.458506  -2.408938  14.298084)
  45:      3562.66  540.144652  ( 21.254274  -9.391291  -0.451807)
  46:      3628.11  446.013494  ( 18.371948   3.390804  -9.848222)
  47:      3709.53  146.270021  (  2.462359   1.696917 -11.718672)
  48:      3743.78  326.541728  ( 16.538964  -7.248950  -0.676104)
  49:      3781.37  460.130582  ( -3.442127  20.931675   3.185485)
  50:      3907.70   51.406518  (  1.860993   6.559226   2.218056)
  51:      3909.00   98.736767  (  6.607324  -5.814232   4.612455)
  52:      3910.63  101.429078  ( -3.279065  -8.739078  -3.782238)
  53:      3920.23   82.256342  (  8.353740   2.774622   2.184682)

The first frequency considered to be a vibration is 6
The total number of vibrations considered is 48


--------------------------
THERMOCHEMISTRY AT 298.15K
--------------------------

Temperature         ... 298.15 K
Pressure            ... 1.00 atm
Total Mass          ... 108.09 AMU

Throughout the following assumptions are being made:
  (1) The electronic state is orbitally nondegenerate
  (2) There are no thermally accessible electronically excited states
  (3) Hindered rotations indicated by low frequency modes are not
      treated as such but are treated as vibrations and this may
      cause some error
  (4) All equations used are the standard statistical mechanics
      equations for an ideal gas
  (5) All vibrations are strictly harmonic

freq.      50.30  E(vib)   ...       0.52 
freq.      57.90  E(vib)   ...       0.51 
freq.      76.42  E(vib)   ...       0.49 
freq.     103.13  E(vib)   ...       0.46 
freq.     123.48  E(vib)   ...       0.43 
freq.     153.28  E(vib)   ...       0.40 
freq.     182.11  E(vib)   ...       0.37 
freq.     195.17  E(vib)   ...       0.36 
freq.     214.26  E(vib)   ...       0.34 
freq.     227.92  E(vib)   ...       0.33 
freq.     236.39  E(vib)   ...       0.32 
freq.     237.96  E(vib)   ...       0.32 
freq.     251.10  E(vib)   ...       0.30 
freq.     272.27  E(vib)   ...       0.29 
freq.     289.26  E(vib)   ...       0.27 
freq.     295.57  E(vib)   ...       0.27 
freq.     389.06  E(vib)   ...       0.20 
freq.     406.34  E(vib)   ...       0.19 
freq.     452.07  E(vib)   ...       0.16 
freq.     468.28  E(vib)   ...       0.16 
freq.     486.82  E(vib)   ...       0.15 
freq.     552.12  E(vib)   ...       0.12 
freq.     572.03  E(vib)   ...       0.11 
freq.     641.89  E(vib)   ...       0.09 
freq.     702.82  E(vib)   ...       0.07 
freq.     742.39  E(vib)   ...       0.06 
freq.     798.96  E(vib)   ...       0.05 
freq.     816.18  E(vib)   ...       0.05 
freq.     879.33  E(vib)   ...       0.04 
freq.    1008.44  E(vib)   ...       0.02 
freq.    1656.42  E(vib)   ...       0.00 
freq.    1664.72  E(vib)   ...       0.00 
freq.    1678.83  E(vib)   ...       0.00 
freq.    1692.48  E(vib)   ...       0.00 
freq.    1704.14  E(vib)   ...       0.00 
freq.    1720.12  E(vib)   ...       0.00 
freq.    3240.18  E(vib)   ...       0.00 
freq.    3461.96  E(vib)   ...       0.00 
freq.    3515.63  E(vib)   ...       0.00 
freq.    3562.66  E(vib)   ...       0.00 
freq.    3628.11  E(vib)   ...       0.00 
freq.    3709.53  E(vib)   ...       0.00 
freq.    3743.78  E(vib)   ...       0.00 
freq.    3781.37  E(vib)   ...       0.00 
freq.    3907.70  E(vib)   ...       0.00 
freq.    3909.00  E(vib)   ...       0.00 
freq.    3910.63  E(vib)   ...       0.00 
freq.    3920.23  E(vib)   ...       0.00 

------------
INNER ENERGY
------------

The inner energy is: U= E(el) + E(ZPE) + E(vib) + E(rot) + E(trans)
    E(el)   - is the total energy from the electronic structure calculation
              = E(kin-el) + E(nuc-el) + E(el-el) + E(nuc-nuc)
    E(ZPE)  - the the zero temperature vibrational energy from the frequency calculation
    E(vib)  - the the finite temperature correction to E(ZPE) due to population
              of excited vibrational states
    E(rot)  - is the rotational thermal energy
    E(trans)- is the translational thermal energy

Summary of contributions to the inner energy U:
Electronic energy                ...   -458.42183355 Eh
Zero point energy                ...      0.15102135 Eh      94.77 kcal/mol
Thermal vibrational correction   ...      0.01185461 Eh       7.44 kcal/mol
Thermal rotational correction    ...      0.00141627 Eh       0.89 kcal/mol
Thermal translational correction ...      0.00141627 Eh       0.89 kcal/mol
-----------------------------------------------------------------------
Total thermal energy                   -458.25612505 Eh


Summary of corrections to the electronic energy:
(perhaps to be used in another calculation)
Total thermal correction                  0.01468715 Eh       9.22 kcal/mol
Non-thermal (ZPE) correction              0.15102135 Eh      94.77 kcal/mol
-----------------------------------------------------------------------
Total correction                          0.16570850 Eh     103.98 kcal/mol


--------
ENTHALPY
--------

The enthalpy is H = U + kB*T
                kB is Boltzmann's constant
Total free energy                 ...   -458.25612505 Eh 
Thermal Enthalpy correction       ...      0.00094421 Eh       0.59 kcal/mol
-----------------------------------------------------------------------
Total Enthalpy                    ...   -458.25518084 Eh


Note: Only C1 symmetry has been detected, increase convergence thresholds 
      if your molecule has a higher symmetry. Symmetry factor of 1.0 is   
      used for the rotational entropy correction. 
 

Note: Rotational entropy computed according to Herzberg 
Infrared and Raman Spectra, Chapter V,1, Van Nostrand Reinhold, 1945 
Point Group:  C1, Symmetry Number:   1  
Rotational constants in cm-1:     0.075696     0.038967     0.037121 

Vibrational entropy computed according to the QRRHO of S. Grimme
Chem.Eur.J. 2012 18 9955


-------
ENTROPY
-------

The entropy contributions are T*S = T*(S(el)+S(vib)+S(rot)+S(trans))
     S(el)   - electronic entropy
     S(vib)  - vibrational entropy
     S(rot)  - rotational entropy
     S(trans)- translational entropy
The entropies will be listed as mutliplied by the temperature to get
units of energy

Electronic entropy                ...      0.00000000 Eh      0.00 kcal/mol
Vibrational entropy               ...      0.02102730 Eh     13.19 kcal/mol
Rotational entropy                ...      0.01381611 Eh      8.67 kcal/mol
Translational entropy             ...      0.01898142 Eh     11.91 kcal/mol
-----------------------------------------------------------------------
Final entropy term                ...      0.05382483 Eh     33.78 kcal/mol

In case the symmetry of your molecule has not been determined correctly
or in case you have a reason to use a different symmetry number we print 
out the resulting rotational entropy values for sn=1,12 :
 --------------------------------------------------------
|  sn= 1 | S(rot)=       0.01381611 Eh      8.67 kcal/mol|
|  sn= 2 | S(rot)=       0.01316165 Eh      8.26 kcal/mol|
|  sn= 3 | S(rot)=       0.01277882 Eh      8.02 kcal/mol|
|  sn= 4 | S(rot)=       0.01250720 Eh      7.85 kcal/mol|
|  sn= 5 | S(rot)=       0.01229651 Eh      7.72 kcal/mol|
|  sn= 6 | S(rot)=       0.01212436 Eh      7.61 kcal/mol|
|  sn= 7 | S(rot)=       0.01197882 Eh      7.52 kcal/mol|
|  sn= 8 | S(rot)=       0.01185274 Eh      7.44 kcal/mol|
|  sn= 9 | S(rot)=       0.01174153 Eh      7.37 kcal/mol|
|  sn=10 | S(rot)=       0.01164205 Eh      7.31 kcal/mol|
|  sn=11 | S(rot)=       0.01155206 Eh      7.25 kcal/mol|
|  sn=12 | S(rot)=       0.01146991 Eh      7.20 kcal/mol|
 --------------------------------------------------------


-------------------
GIBBS FREE ENERGY
-------------------

The Gibbs free energy is G = H - T*S

Total enthalpy                    ...   -458.25518084 Eh 
Total entropy correction          ...     -0.05382483 Eh    -33.78 kcal/mol
-----------------------------------------------------------------------
Final Gibbs free energy         ...   -458.30900566 Eh

For completeness - the Gibbs free energy minus the electronic energy
G-E(el)                           ...      0.11282789 Eh     70.80 kcal/mol


Total Time for Numerical Frequencies  :     13506.591 sec

Timings for individual modules:

Sum of individual times         ...      850.141 sec (=  14.169 min)
GTO integral calculation        ...        5.630 sec (=   0.094 min)   0.7 %
SCF iterations                  ...       46.434 sec (=   0.774 min)   5.5 %
MP2 module                      ...      797.235 sec (=  13.287 min)  93.8 %
Geometry relaxation             ...        0.842 sec (=   0.014 min)   0.1 %
                             ****ORCA TERMINATED NORMALLY****
TOTAL RUN TIME: 0 days 3 hours 57 minutes 2 seconds 543 msec
