
                                 *****************
                                 * O   R   C   A *
                                 *****************

           --- An Ab Initio, DFT and Semiempirical electronic structure package ---

                  #######################################################
                  #                        -***-                        #
                  #          Department of theory and spectroscopy      #
                  #               Directorship: Frank Neese             #
                  #        Max Planck Institute fuer Kohlenforschung    #
                  #                Kaiser Wilhelm Platz 1               #
                  #                 D-45470 Muelheim/Ruhr               #
                  #                      Germany                        #
                  #                                                     #
                  #                  All rights reserved                #
                  #                        -***-                        #
                  #######################################################


                         Program Version 4.2.0 -  RELEASE  -


 With contributions from (in alphabetic order):
   Daniel Aravena         : Magnetic Suceptibility
   Michael Atanasov       : Ab Initio Ligand Field Theory (pilot matlab implementation)
   Alexander A. Auer      : GIAO ZORA, VPT2
   Ute Becker             : Parallelization
   Giovanni Bistoni       : ED, misc. LED, open-shell LED, HFLED
   Martin Brehm           : Molecular dynamics
   Dmytro Bykov           : SCF Hessian
   Vijay G. Chilkuri      : MRCI spin determinant printing, contributions to CSF-ICE
   Dipayan Datta          : RHF DLPNO-CCSD density
   Achintya Kumar Dutta   : EOM-CC, STEOM-CC
   Dmitry Ganyushin       : Spin-Orbit,Spin-Spin,Magnetic field MRCI
   Miquel Garcia          : C-PCM Hessian, Gaussian charge scheme
   Yang Guo               : DLPNO-NEVPT2, CIM, IAO-localization
   Andreas Hansen         : Spin unrestricted coupled pair/coupled cluster methods
   Benjamin Helmich-Paris : CASSCF linear response (MC-RPA)
   Lee Huntington         : MR-EOM, pCC
   Robert Izsak           : Overlap fitted RIJCOSX, COSX-SCS-MP3, EOM
   Christian Kollmar      : KDIIS, OOCD, Brueckner-CCSD(T), CCSD density
   Simone Kossmann        : Meta GGA functionals, TD-DFT gradient, OOMP2, MP2 Hessian
   Martin Krupicka        : AUTO-CI
   Lucas Lang             : DCDCAS
   Dagmar Lenk            : GEPOL surface, SMD
   Dimitrios Liakos       : Extrapolation schemes; Compound Job, initial MDCI parallelization
   Dimitrios Manganas     : Further ROCIS development; embedding schemes
   Dimitrios Pantazis     : SARC Basis sets
   Taras Petrenko         : DFT Hessian,TD-DFT gradient, ASA, ECA, R-Raman, ABS, FL, XAS/XES, NRVS
   Peter Pinski           : DLPNO-MP2, DLPNO-MP2 Gradient
   Christoph Reimann      : Effective Core Potentials
   Marius Retegan         : Local ZFS, SOC
   Christoph Riplinger    : Optimizer, TS searches, QM/MM, DLPNO-CCSD(T), (RO)-DLPNO pert. Triples
   Tobias Risthaus        : Range-separated hybrids, TD-DFT gradient, RPA, STAB
   Michael Roemelt        : Original ROCIS implementation
   Masaaki Saitow         : Open-shell DLPNO-CCSD energy and density
   Barbara Sandhoefer     : DKH picture change effects
   Avijit Sen             : IP-ROCIS
   Kantharuban Sivalingam : CASSCF convergence, NEVPT2, FIC-MRCI
   Bernardo de Souza      : ESD, SOC TD-DFT
   Georgi Stoychev        : AutoAux, RI-MP2 NMR
   Willem Van den Heuvel  : Paramagnetic NMR
   Boris Wezisla          : Elementary symmetry handling
   Frank Wennmohs         : Technical directorship


 We gratefully acknowledge several colleagues who have allowed us to
 interface, adapt or use parts of their codes:
   Stefan Grimme, W. Hujo, H. Kruse,             : VdW corrections, initial TS optimization,
                  C. Bannwarth                     DFT functionals, gCP, sTDA/sTD-DF
   Ed Valeev, F. Pavosevic, A. Kumar             : LibInt (2-el integral package), F12 methods
   Garnet Chan, S. Sharma, J. Yang, R. Olivares  : DMRG
   Ulf Ekstrom                                   : XCFun DFT Library
   Mihaly Kallay                                 : mrcc  (arbitrary order and MRCC methods)
   Andreas Klamt, Michael Diedenhofen            : otool_cosmo (COSMO solvation model)
   Jiri Pittner, Ondrej Demel                    : Mk-CCSD
   Frank Weinhold                                : gennbo (NPA and NBO analysis)
   Christopher J. Cramer and Donald G. Truhlar   : smd solvation model
   Lars Goerigk                                  : TD-DFT with DH, B97 family of functionals
   V. Asgeirsson, H. Jonsson                     : NEB implementation
   FAccTs GmbH                                   : IRC, NEB, NEB-TS, Multilevel, MM, QM/MM, CI optimization
   S Lehtola, MJT Oliveira, MAL Marques          : LibXC Library


 Your calculation uses the libint2 library for the computation of 2-el integrals
 For citations please refer to: http://libint.valeyev.net

 Your ORCA version has been built with support for libXC version: 4.2.3
 For citations please refer to: https://tddft.org/programs/libxc/

 This ORCA versions uses:
   CBLAS   interface :  Fast vector & matrix operations
   LAPACKE interface :  Fast linear algebra routines
   SCALAPACK package :  Parallel linear algebra routines


Your calculation utilizes the atom-pairwise dispersion correction
with the Becke-Johnson damping scheme (D3BJ)
Cite in your paper:
S.Grimme, S.Ehrlich, L.Goerigk, J Comput Chem, (2011), 32, 1456–1465 
S.Grimme, J.Antony, S.Ehrlich and H.Krieg, J.Chem.Phys., 132, (2010), 154104 
   

----- Orbital basis set information -----
Your calculation utilizes the basis: aug-cc-pV(T+d)Z 
             Al - Ar: T.H. Dunning, Jr., K. A. Peterson and A. K. Wilson, J. Chem. Phys.
                      114, 9244 (2001)

----- AuxC basis set information -----
Your calculation utilizes the auxiliary basis: def2-TZVP/C
  H-La, Hf-Rn : A. Hellweg, C. Hattig, S. Hofener and W. Klopper, Theor. Chem. Acc. 117, 587 (2007).
        Ce-Lu : J. Chmela and M. E. Harding, Mol. Phys. (2018).

----- AuxJK basis set information -----
Your calculation utilizes the auxiliary basis: def2/JK
   H-Ba, Hf-Rn: F. Weigend, J. Comput. Chem. 29, 167 (2008).

================================================================================
                                        WARNINGS
                       Please study these warnings very carefully!
================================================================================


WARNING: The frozen-core approximation for MP2-gradient calculations is turned on by default.

WARNING: Geometry Optimization
  ===> : Switching off AutoStart
         For restart on a previous wavefunction, please use MOREAD

WARNING: There are different parametrizations of Gershom Martin's DSD-DFs
         for use with and without D3(BJ)!
         You are using the D3(BJ) parametrized version,
         consistent with the 2013 article (S. Kozuch and J. M. L. Martin, JCC 2013, 34, 2327)

WARNING: The frozen-core approximation is turned on by default for 
         the MP2 part of double-hybrid DFT.

INFO   : the flag for use of LIBINT has been found!

================================================================================
                                       INPUT FILE
================================================================================
NAME = 09_H2O_6_prism.in
|  1> #
|  2> # 09_H2O_6_prism dsd-blyp/aug-cc-pvt(+d)z
|  3> #
|  4> ! rijk ri-dsd-blyp/2013 d3bj aug-cc-pvt(+d)z def2/jk def2-tzvp/c grid4 nofinalgrid opt xyzfile numfreq
|  5> 
|  6> *xyz 0 1
|  7> O	-1.511782	-0.232325	1.434522
|  8> H	-0.6139	-0.631798	1.542476
|  9> H	-2.015087	-0.484249	2.21021
| 10> O	-1.744551	-0.350365	-1.322141
| 11> H	-1.89002	-0.475498	-0.368433
| 12> H	-2.508917	-0.726304	-1.761973
| 13> O	-0.568902	2.010658	-0.079448
| 14> H	-0.9578	1.52123	0.658817
| 15> H	-0.991476	1.598457	-0.84212
| 16> O	0.972064	-1.194842	1.413465
| 17> H	0.986177	-1.536208	0.500658
| 18> H	1.544338	-0.420911	1.334663
| 19> O	0.983916	-1.359847	-1.372465
| 20> H	0.077993	-1.073694	-1.552782
| 21> H	1.480193	-0.535792	-1.283351
| 22> O	2.003223	1.063257	-0.092296
| 23> H	1.144078	1.530799	-0.098089
| 24> H	2.67269	1.741694	-0.193152
| 25> *
| 26> 
| 27> %maxcore 5000
| 28> 
| 29> %pal
| 30> nprocs 24
| 31> end
| 32> 
| 33> 
| 34>                          ****END OF INPUT****
================================================================================

                       *****************************
                       * Geometry Optimization Run *
                       *****************************

Geometry optimization settings:
Update method            Update   .... BFGS
Choice of coordinates    CoordSys .... Z-matrix Internals
Initial Hessian          InHess   .... Almoef's Model

Convergence Tolerances:
Energy Change            TolE     ....  5.0000e-06 Eh
Max. Gradient            TolMAXG  ....  3.0000e-04 Eh/bohr
RMS Gradient             TolRMSG  ....  1.0000e-04 Eh/bohr
Max. Displacement        TolMAXD  ....  4.0000e-03 bohr
RMS Displacement         TolRMSD  ....  2.0000e-03 bohr
Strict Convergence                ....  False
------------------------------------------------------------------------------
                        ORCA OPTIMIZATION COORDINATE SETUP
------------------------------------------------------------------------------

The optimization will be done in new redundant internal coordinates
Making redundant internal coordinates   ...  (new redundants) done
Evaluating the initial hessian          ...  (Almloef) done
Evaluating the coordinates              ...  done
Calculating the B-matrix                .... done
Calculating the G-matrix                .... done
Diagonalizing the G-matrix              .... done
The first mode is                       ....  371
The number of degrees of freedom        ....   48

    -----------------------------------------------------------------
                    Redundant Internal Coordinates


    -----------------------------------------------------------------
         Definition                    Initial Value    Approx d2E/dq
    -----------------------------------------------------------------
      1. B(H   1,O   0)                  0.9886         0.468016   
      2. B(H   2,O   0)                  0.9584         0.523079   
      3. B(H   4,O   0)                  1.8582         0.019186   
      4. B(H   4,O   3)                  0.9728         0.496036   
      5. B(H   4,H   1)                  2.3031         0.000800   
      6. B(H   5,O   3)                  0.9587         0.522513   
      7. B(H   7,H   4)                  2.4313         0.000499   
      8. B(H   7,H   1)                  2.3526         0.000667   
      9. B(H   7,O   0)                  1.9959         0.011568   
     10. B(H   7,O   6)                  0.9674         0.506056   
     11. B(H   8,H   4)                  2.3093         0.000782   
     12. B(H   8,O   6)                  0.9644         0.511542   
     13. B(H   8,O   3)                  2.1437         0.006721   
     14. B(O   9,H   1)                  1.6879         0.035866   
     15. B(H  10,O   9)                  0.9747         0.492709   
     16. B(H  10,H   1)                  2.1127         0.001610   
     17. B(H  11,H   1)                  2.1785         0.001265   
     18. B(H  11,O   9)                  0.9658         0.509085   
     19. B(O  12,H  10)                  1.8814         0.017616   
     20. B(H  13,H  10)                  2.2925         0.000832   
     21. B(H  13,H   4)                  2.3735         0.000618   
     22. B(H  13,O   3)                  1.9744         0.012521   
     23. B(H  13,O  12)                  0.9670         0.506751   
     24. B(H  14,H  10)                  2.1042         0.001661   
     25. B(H  14,O  12)                  0.9661         0.508483   
     26. B(O  15,H  11)                  2.1094         0.007624   
     27. B(O  15,H  14)                  2.0613         0.009096   
     28. B(H  16,H   8)                  2.2625         0.000929   
     29. B(H  16,H   7)                  2.2340         0.001031   
     30. B(H  16,O   6)                  1.7790         0.025661   
     31. B(H  16,O  15)                  0.9781         0.486435   
     32. B(H  17,O  15)                  0.9585         0.522917   
     33. A(H   2,O   0,H   7)          133.7319         0.187530   
     34. A(H   2,O   0,H   4)          130.0927         0.199483   
     35. A(H   1,O   0,H   4)          103.7647         0.196736   
     36. A(H   1,O   0,H   7)           98.3581         0.185080   
     37. A(H   4,O   0,H   7)           78.1339         0.135627   
     38. A(H   1,O   0,H   2)          106.4011         0.316661   
     39. A(H   4,H   1,H  10)           92.2664         0.098514   
     40. A(O   0,H   1,H  10)          143.7987         0.138745   
     41. A(H  10,H   1,H  11)           40.8936         0.099554   
     42. A(H   7,H   1,O   9)          114.4518         0.111784   
     43. A(O   9,H   1,H  10)           26.8601         0.116813   
     44. A(H   4,H   1,H   7)           62.9514         0.096794   
     45. A(O   0,H   1,O   9)          168.4624         0.213125   
     46. A(O   0,H   1,H   7)           57.0737         0.129750   
     47. A(O   0,H   1,H  11)          148.2370         0.136099   
     48. A(H   4,H   1,O   9)          118.6751         0.112740   
     49. A(O   9,H   1,H  11)           25.0555         0.115334   
     50. A(H   4,H   1,H  11)          117.5949         0.098008   
     51. A(H   7,H   1,H  10)          108.4971         0.098131   
     52. A(O   0,H   1,H   4)           51.5943         0.131460   
     53. A(H   7,H   1,H  11)           91.1688         0.097645   
     54. A(H   4,O   3,H   8)           87.1308         0.175094   
     55. A(H   5,O   3,H  13)          122.5988         0.189286   
     56. A(H   4,O   3,H  13)          101.8549         0.188112   
     57. A(H   4,O   3,H   5)          106.2671         0.319621   
     58. A(H   8,O   3,H  13)           92.0018         0.126438   
     59. A(H   5,O   3,H   8)          137.6745         0.176114   
     60. A(O   0,H   4,H  13)          110.3870         0.108435   
     61. A(H   7,H   4,H   8)           36.8628         0.096263   
     62. A(O   3,H   4,H  13)           54.4967         0.129578   
     63. A(O   0,H   4,O   3)          154.6816         0.198163   
     64. A(H   7,H   4,H  13)           95.7328         0.095885   
     65. A(O   3,H   4,H   8)           67.9887         0.131802   
     66. A(O   0,H   4,H   1)           24.6410         0.109606   
     67. A(H   1,H   4,H   7)           59.5179         0.096300   
     68. A(H   8,H   4,H  13)           78.5433         0.096620   
     69. A(H   1,H   4,H  13)           86.4159         0.096659   
     70. A(O   0,H   4,H   8)           90.1314         0.109500   
     71. A(H   1,H   4,H   8)           90.8907         0.097079   
     72. A(O   0,H   4,H   7)           53.4534         0.107523   
     73. A(O   3,H   4,H   7)          104.5508         0.127674   
     74. A(H   1,H   4,O   3)          137.6694         0.132023   
     75. A(H   7,O   6,H   8)          102.1882         0.319557   
     76. A(H   8,O   6,H  16)          107.3567         0.206405   
     77. A(H   7,O   6,H  16)          104.9882         0.206119   
     78. A(O   0,H   7,H   1)           24.5682         0.106636   
     79. A(H   1,H   7,O   6)          133.7018         0.130478   
     80. A(O   0,H   7,O   6)          148.5058         0.186795   
     81. A(H   1,H   7,H  16)           89.6360         0.097255   
     82. A(O   0,H   7,H  16)          113.3648         0.108463   
     83. A(O   6,H   7,H  16)           50.2853         0.134775   
     84. A(H   4,H   7,H  16)          102.7743         0.096732   
     85. A(H   1,H   7,H   4)           57.5306         0.096006   
     86. A(O   0,H   7,H   4)           48.4127         0.105519   
     87. A(H   4,H   7,O   6)          104.3119         0.127850   
     88. A(O   3,H   8,O   6)          136.0167         0.175696   
     89. A(O   3,H   8,H  16)          112.2126         0.105810   
     90. A(O   6,H   8,H  16)           48.6350         0.133814   
     91. A(O   3,H   8,H   4)           24.8805         0.105168   
     92. A(H   4,H   8,H  16)          105.8401         0.097357   
     93. A(H   4,H   8,O   6)          113.0860         0.132101   
     94. A(H   1,O   9,H  11)          107.1996         0.215510   
     95. A(H  10,O   9,H  11)          101.2843         0.317917   
     96. A(H   1,O   9,H  10)          101.6553         0.214578   
     97. A(O  12,H  10,H  14)           27.3281         0.112848   
     98. A(H   1,H  10,H  14)          113.1019         0.100226   
     99. A(H   1,H  10,O   9)           51.4846         0.139327   
    100. A(O   9,H  10,H  14)          129.1181         0.139686   
    101. A(H  13,H  10,H  14)           40.3276         0.098668   
    102. A(O  12,H  10,H  13)           24.3306         0.109392   
    103. A(H   1,H  10,H  13)           93.1702         0.098599   
    104. A(O   9,H  10,H  13)          139.6853         0.132341   
    105. A(H   1,H  10,O  12)          116.7377         0.112679   
    106. A(O   9,H  10,O  12)          154.1020         0.195912   
    107. A(H   1,H  11,O   9)           47.7450         0.137004   
    108. A(H   1,H  11,O  15)          110.3754         0.107548   
    109. A(O   9,H  11,O  15)          138.4136         0.178108   
    110. A(H  13,O  12,H  14)          104.2434         0.319316   
    111. A(H  10,O  12,H  14)           89.2840         0.196678   
    112. A(H  10,O  12,H  13)          102.3870         0.196595   
    113. A(H   4,H  13,O  12)          139.3159         0.129774   
    114. A(O   3,H  13,O  12)          162.0699         0.188593   
    115. A(H   4,H  13,H  10)           86.1220         0.096728   
    116. A(O   3,H  13,H  10)          109.5712         0.107876   
    117. A(H  10,H  13,O  12)           53.2824         0.132618   
    118. A(O   3,H  13,H   4)           23.6483         0.106645   
    119. A(H  10,H  14,O  15)           86.4741         0.109534   
    120. A(O  12,H  14,O  15)          147.7081         0.181715   
    121. A(H  10,H  14,O  12)           63.3879         0.140049   
    122. A(H  11,O  15,H  14)           77.8701         0.124834   
    123. A(H  14,O  15,H  17)          131.7227         0.182304   
    124. A(H  14,O  15,H  16)           98.3087         0.180790   
    125. A(H  16,O  15,H  17)          105.9349         0.318643   
    126. A(H  11,O  15,H  17)          136.1515         0.178650   
    127. A(H  11,O  15,H  16)           98.5830         0.177194   
    128. A(H   7,H  16,H   8)           39.0568         0.097897   
    129. A(O   6,H  16,H   8)           24.0083         0.111765   
    130. A(H   8,H  16,O  15)          147.7059         0.133307   
    131. A(O   6,H  16,H   7)           24.7265         0.112310   
    132. A(H   7,H  16,O  15)          145.3191         0.134367   
    133. A(O   6,H  16,O  15)          167.0604         0.205076   
    134. D(O   9,H   1,O   0,H   4)     34.7170         0.390938   
    135. D(H   7,H   1,O   0,H   4)     79.7475         0.390938   
    136. D(H  10,H   1,O   0,H   7)    -75.8291         0.390938   
    137. D(O   9,H   1,O   0,H   7)    -45.0305         0.390938   
    138. D(H   4,H   1,O   0,H   2)    139.7559         0.390938   
    139. D(H  11,H   1,O   0,H   2)   -139.3059         0.390938   
    140. D(H   4,H   1,O   0,H   7)    -79.7475         0.390938   
    141. D(H  10,H   1,O   0,H   4)      3.9184         0.390938   
    142. D(O   9,H   1,O   0,H   2)    174.4729         0.390938   
    143. D(H  11,H   1,O   0,H   4)     80.9382         0.390938   
    144. D(H  11,H   1,O   0,H   7)      1.1907         0.390938   
    145. D(H   7,H   1,O   0,H   2)   -140.4966         0.390938   
    146. D(H  10,H   1,O   0,H   2)    143.6742         0.390938   
    147. D(H   8,H   4,H   1,H   7)     20.3389         0.001510   
    148. D(O   0,H   4,H   1,H   7)    -68.0341         0.001510   
    149. D(H  13,H   4,O   0,H   7)     81.7890         0.001789   
    150. D(O   0,H   4,H   1,H  10)   -177.6851         0.001510   
    151. D(H   8,H   4,O   3,H   5)   -139.1571         0.453874   
    152. D(H   7,H   4,O   3,H   5)   -143.9499         0.453874   
    153. D(H   1,H   4,O   0,H   2)   -125.8907         0.001789   
    154. D(H  13,H   4,O   0,H   2)   -139.9246         0.001789   
    155. D(H   1,H   4,O   3,H   8)    -65.2352         0.453874   
    156. D(H   7,H   4,H   1,O   0)     68.0341         0.001510   
    157. D(O   3,H   4,H   1,O   0)    145.7197         0.001510   
    158. D(H   1,H   4,O   0,H   7)     95.8229         0.001789   
    159. D(O   3,H   4,H   1,H  10)    -31.9654         0.001510   
    160. D(H   8,H   4,O   3,H  13)     91.4449         0.453874   
    161. D(O   3,H   4,O   0,H   1)    -62.4893         0.001789   
    162. D(H   7,H   4,O   3,H   8)     -4.7928         0.453874   
    163. D(O   3,H   4,O   0,H   2)    171.6200         0.001789   
    164. D(H   8,H   4,O   0,H   1)    -91.8501         0.001789   
    165. D(H   7,H   4,O   0,H   1)    -95.8229         0.001789   
    166. D(H  13,H   4,H   1,H  10)    -10.8498         0.001510   
    167. D(H   8,H   4,H   1,O   9)    -84.1669         0.001510   
    168. D(H   7,H   4,O   0,H   2)    138.2864         0.001789   
    169. D(H  13,H   4,O   0,H   1)    -14.0339         0.001789   
    170. D(H  13,H   4,O   3,H   5)    129.3980         0.453874   
    171. D(H   1,H   4,O   3,H  13)     26.2097         0.453874   
    172. D(H   7,H   4,H   1,O   9)   -104.5059         0.001510   
    173. D(H   8,H   4,H   1,H  10)    -89.3120         0.001510   
    174. D(H   7,H   4,H   1,H  11)    -76.0525         0.001510   
    175. D(H  13,H   4,H   1,H  11)     22.7486         0.001510   
    176. D(H   8,H   4,O   0,H   7)      3.9728         0.001789   
    177. D(H   7,H   4,H   1,H  10)   -109.6510         0.001510   
    178. D(H   8,H   4,H   1,O   0)     88.3731         0.001510   
    179. D(H  13,H   4,H   1,H   7)     98.8012         0.001510   
    180. D(H   8,H   4,H   1,H  11)    -55.7136         0.001510   
    181. D(H   8,H   4,O   0,H   2)    142.2592         0.001789   
    182. D(O   3,H   4,H   1,O   9)    -26.8203         0.001510   
    183. D(H   1,H   4,O   3,H   5)    155.6076         0.453874   
    184. D(O   0,H   4,H   1,H  11)   -144.0867         0.001510   
    185. D(H  13,H   4,H   1,O   9)     -5.7047         0.001510   
    186. D(O   0,H   4,H   1,O   9)   -172.5400         0.001510   
    187. D(O   3,H   4,O   0,H   7)     33.3335         0.001789   
    188. D(H  13,H   4,H   1,O   0)    166.8353         0.001510   
    189. D(O   0,H   4,O   3,H   5)   -171.0852         0.453874   
    190. D(H  13,H   4,O   3,H   8)    -91.4449         0.453874   
    191. D(O   3,H   4,H   1,H  11)      1.6331         0.001510   
    192. D(H   7,H   4,O   3,H  13)     86.6521         0.453874   
    193. D(O   3,H   4,H   1,H   7)     77.6856         0.001510   
    194. D(O   0,H   4,O   3,H   8)    -31.9280         0.453874   
    195. D(O   0,H   4,O   3,H  13)     59.5169         0.453874   
    196. D(O   6,H   7,O   0,H   1)     67.0798         0.001597   
    197. D(H  16,H   7,O   6,H   8)    111.9486         0.421007   
    198. D(H   4,H   7,O   6,H   8)     17.0878         0.421007   
    199. D(H   1,H   7,O   6,H  16)    -36.3649         0.421007   
    200. D(H  16,H   7,H   4,O   0)    110.0283         0.001504   
    201. D(H  16,H   7,H   4,H   8)    -63.3399         0.001504   
    202. D(H  16,H   7,H   4,H   1)     81.2578         0.001504   
    203. D(O   0,H   7,O   6,H  16)    -68.3506         0.421007   
    204. D(H  16,H   7,H   4,O   3)    -55.9208         0.001504   
    205. D(O   0,H   7,O   6,H   8)     43.5981         0.421007   
    206. D(H   1,H   7,H   4,H  13)    -82.4150         0.001504   
    207. D(H   4,H   7,O   6,H  16)    -94.8609         0.421007   
    208. D(H   1,H   7,O   6,H   8)     75.5837         0.421007   
    209. D(O   0,H   7,H   4,H   8)   -173.3681         0.001504   
    210. D(O   0,H   7,H   4,H  13)   -111.1855         0.001504   
    211. D(O   0,H   7,H   4,H   1)    -28.7705         0.001504   
    212. D(O   0,H   7,H   4,O   3)   -165.9490         0.001504   
    213. D(O   6,H   7,H   4,H  13)     50.6489         0.001504   
    214. D(O   6,H   7,H   4,O   0)    161.8343         0.001504   
    215. D(O   6,H   7,H   4,H   1)    133.0638         0.001504   
    216. D(H  16,H   7,H   1,H  11)     15.2163         0.001506   
    217. D(H  16,H   7,H   1,H  10)    -22.5565         0.001506   
    218. D(H  16,H   7,H   1,O   9)      5.6467         0.001506   
    219. D(H   4,H   7,H   1,H  10)     82.8775         0.001506   
    220. D(H   4,H   7,H   1,O   0)    -59.9766         0.001506   
    221. D(O   0,H   7,H   1,H   4)     59.9766         0.001506   
    222. D(H  16,H   7,H   1,H   4)   -105.4340         0.001506   
    223. D(O   6,H   7,H   4,O   3)     -4.1147         0.001504   
    224. D(O   0,H   7,H   1,H  11)   -179.3731         0.001506   
    225. D(H   4,H   7,H   1,O   9)    111.0807         0.001506   
    226. D(O   0,H   7,H   1,H  10)    142.8541         0.001506   
    227. D(O   6,H   7,H   4,H   8)    -11.5338         0.001504   
    228. D(O   0,H   7,H   1,O   9)    171.0573         0.001506   
    229. D(H  16,H   7,H   1,O   0)   -165.4106         0.001506   
    230. D(O   6,H   7,H   1,H   4)    -78.2977         0.001506   
    231. D(O   6,H   7,H   1,H  11)     42.3526         0.001506   
    232. D(H   1,H   7,H   4,O   3)   -137.1786         0.001504   
    233. D(H   1,H   7,H   4,O   0)     28.7705         0.001504   
    234. D(H   4,H   7,H   1,H  11)    120.6503         0.001506   
    235. D(H   1,H   7,H   4,H   8)   -144.5976         0.001504   
    236. D(O   6,H   7,H   1,O   9)     32.7830         0.001506   
    237. D(O   6,H   7,H   1,O   0)   -138.2743         0.001506   
    238. D(H  16,H   7,O   0,H   4)    -86.4826         0.001597   
    239. D(H  16,H   7,H   4,H  13)     -1.1572         0.001504   
    240. D(O   6,H   7,H   1,H  10)      4.5798         0.001506   
    241. D(H  16,H   7,O   0,H   2)    138.3043         0.001597   
    242. D(O   6,H   7,O   0,H   4)    -35.3282         0.001597   
    243. D(H   4,H   7,O   0,H   2)   -135.2132         0.001597   
    244. D(H   1,H   7,O   0,H   4)   -102.4079         0.001597   
    245. D(H   1,H   7,O   0,H   2)    122.3789         0.001597   
    246. D(H  16,H   7,O   0,H   1)     15.9254         0.001597   
    247. D(H   4,H   7,O   0,H   1)    102.4079         0.001597   
    248. D(O   6,H   7,O   0,H   2)   -170.5413         0.001597   
    249. D(O   6,H   8,H   4,O   0)      6.8718         0.001508   
    250. D(O   6,H   8,H   4,H   1)    -17.7587         0.001508   
    251. D(O   6,H   8,H   4,O   3)   -160.0569         0.001508   
    252. D(H  16,H   8,O   3,H  13)    -22.1284         0.001531   
    253. D(H  16,H   8,O   3,H   5)   -169.1613         0.001531   
    254. D(O   6,H   8,H   4,H  13)   -103.9202         0.001508   
    255. D(H  16,H   8,O   3,H   4)     79.6464         0.001531   
    256. D(H   4,H   8,O   3,H  13)   -101.7748         0.001531   
    257. D(H   4,H   8,O   3,H   5)    111.1922         0.001531   
    258. D(O   6,H   8,O   3,H  13)    -74.9137         0.001531   
    259. D(O   6,H   8,O   3,H   5)    138.0534         0.001531   
    260. D(O   6,H   8,O   3,H   4)     26.8611         0.001531   
    261. D(H   4,H   8,O   6,H   7)    -19.0169         0.401285   
    262. D(H  16,H   8,H   4,H   1)     33.5003         0.001508   
    263. D(H  16,H   8,H   4,H  13)    -52.6613         0.001508   
    264. D(H   4,H   8,O   6,H  16)     91.1475         0.401285   
    265. D(O   3,H   8,O   6,H   7)    -30.9427         0.401285   
    266. D(H  16,H   8,H   4,O   0)     58.1308         0.001508   
    267. D(O   3,H   8,O   6,H  16)     79.2216         0.401285   
    268. D(H  16,H   8,H   4,O   3)   -108.7979         0.001508   
    269. D(O   3,H   8,H   4,H   7)    172.2523         0.001508   
    270. D(H  16,H   8,H   4,H   7)     63.4544         0.001508   
    271. D(O   3,H   8,H   4,H  13)     56.1366         0.001508   
    272. D(O   3,H   8,H   4,H   1)    142.2982         0.001508   
    273. D(H  16,H   8,O   6,H   7)   -110.1644         0.401285   
    274. D(O   3,H   8,H   4,O   0)    166.9287         0.001508   
    275. D(O   6,H   8,H   4,H   7)     12.1955         0.001508   
    276. D(H  11,O   9,H   1,H   7)     23.1085         0.002499   
    277. D(H  11,O   9,H   1,H   4)     94.4037         0.002499   
    278. D(H  11,O   9,H   1,H  10)    105.8430         0.002499   
    279. D(H  11,O   9,H   1,O   0)     63.8275         0.002499   
    280. D(H  10,O   9,H   1,H   7)    -82.7345         0.002499   
    281. D(H  10,O   9,H   1,H   4)    -11.4393         0.002499   
    282. D(H  10,O   9,H   1,H  11)   -105.8430         0.002499   
    283. D(H  10,O   9,H   1,O   0)    -42.0155         0.002499   
    284. D(H  14,H  10,O   9,H   1)     89.9507         0.392975   
    285. D(H  13,H  10,O   9,H   1)     34.0313         0.392975   
    286. D(H  13,H  10,O   9,H  11)    -76.3972         0.392975   
    287. D(O  12,H  10,O   9,H   1)     71.1741         0.392975   
    288. D(H   1,H  10,O   9,H  11)   -110.4285         0.392975   
    289. D(H  14,H  10,H   1,H   7)    -14.7013         0.001536   
    290. D(H  14,H  10,H   1,H   4)     47.4815         0.001536   
    291. D(H  14,H  10,H   1,O   9)   -122.4898         0.001536   
    292. D(H  14,H  10,H   1,O   0)     44.4095         0.001536   
    293. D(H  13,H  10,H   1,H   7)    -50.9492         0.001536   
    294. D(H  13,H  10,H   1,H   4)     11.2335         0.001536   
    295. D(H  13,H  10,H   1,H  11)   -120.2517         0.001536   
    296. D(H  13,H  10,H   1,O   9)   -158.7377         0.001536   
    297. D(H  13,H  10,H   1,O   0)      8.1615         0.001536   
    298. D(O  12,H  10,H   1,H   7)    -44.6371         0.001536   
    299. D(H  14,H  10,H   1,H  11)    -84.0037         0.001536   
    300. D(O  12,H  10,H   1,H   4)     17.5457         0.001536   
    301. D(O  12,H  10,H   1,H  11)   -113.9396         0.001536   
    302. D(O  12,H  10,H   1,O   9)   -152.4256         0.001536   
    303. D(O  12,H  10,O   9,H  11)    -39.2544         0.392975   
    304. D(O  12,H  10,H   1,O   0)     14.4736         0.001536   
    305. D(O   9,H  10,H   1,H   7)    107.7885         0.001536   
    306. D(O   9,H  10,H   1,H   4)    169.9713         0.001536   
    307. D(H  14,H  10,O   9,H  11)    -20.4778         0.392975   
    308. D(O   9,H  10,H   1,H  11)     38.4860         0.001536   
    309. D(O   9,H  10,H   1,O   0)    166.8992         0.001536   
    310. D(O  15,H  11,O   9,H   1)    -71.6360         0.363112   
    311. D(H   1,H  11,O   9,H  10)    106.1060         0.363112   
    312. D(O  15,H  11,H   1,H   7)    -21.2837         0.001520   
    313. D(O  15,H  11,H   1,H   4)     38.5469         0.001520   
    314. D(O  15,H  11,H   1,H  10)     96.1782         0.001520   
    315. D(O  15,H  11,H   1,O   9)    137.7790         0.001520   
    316. D(O  15,H  11,H   1,O   0)    -22.2833         0.001520   
    317. D(O   9,H  11,H   1,H   7)   -159.0627         0.001520   
    318. D(O   9,H  11,H   1,H   4)    -99.2321         0.001520   
    319. D(O  15,H  11,O   9,H  10)     34.4700         0.363112   
    320. D(O   9,H  11,H   1,H  10)    -41.6008         0.001520   
    321. D(O   9,H  11,H   1,O   0)   -160.0623         0.001520   
    322. D(H  14,O  12,H  10,H  13)    104.4291         0.001713   
    323. D(H  14,O  12,H  10,H   1)     88.9762         0.001713   
    324. D(H  14,O  12,H  10,O   9)     32.9544         0.001713   
    325. D(H  13,O  12,H  10,H  14)   -104.4291         0.001713   
    326. D(H  13,O  12,H  10,H   1)    -15.4529         0.001713   
    327. D(H  13,O  12,H  10,O   9)    -71.4747         0.001713   
    328. D(H  10,H  13,O  12,H  14)    -92.4388         0.391647   
    329. D(H   4,H  13,O  12,H  14)    -88.0369         0.391647   
    330. D(O   3,H  13,O  12,H  10)     18.6224         0.391647   
    331. D(O   3,H  13,O  12,H  14)    -73.8164         0.391647   
    332. D(H   4,H  13,H  10,H  14)   -133.7315         0.001509   
    333. D(H   4,H  13,H  10,O  12)   -177.1255         0.001509   
    334. D(H   4,H  13,H  10,H   1)    -10.9130         0.001509   
    335. D(H   4,H  13,H  10,O   9)    -36.9251         0.001509   
    336. D(O   3,H  13,H  10,O  12)   -174.0111         0.001509   
    337. D(O   3,H  13,H  10,H   1)     -7.7986         0.001509   
    338. D(O   3,H  13,H  10,O   9)    -33.8106         0.001509   
    339. D(O  12,H  13,H  10,H   1)    166.2125         0.001509   
    340. D(O  12,H  13,H  10,O   9)    140.2004         0.001509   
    341. D(H  10,H  13,H   4,H   8)    101.6434         0.001505   
    342. D(H  10,H  13,H   4,H   7)     68.8670         0.001505   
    343. D(H  10,H  13,H   4,H   1)     10.0053         0.001505   
    344. D(H  10,H  13,H   4,O   0)     15.8195         0.001505   
    345. D(H  10,H  13,H   4,O   3)    172.6679         0.001505   
    346. D(O   3,H  13,H   4,H   8)    -71.0245         0.001505   
    347. D(O   3,H  13,H   4,H   7)   -103.8009         0.001505   
    348. D(O   3,H  13,H   4,H   1)   -162.6626         0.001505   
    349. D(O   3,H  13,H   4,O   0)   -156.8484         0.001505   
    350. D(O  12,H  13,H   4,H   8)     98.1081         0.001505   
    351. D(O  12,H  13,H  10,H  14)     43.3941         0.001509   
    352. D(O  12,H  13,H   4,H   7)     65.3316         0.001505   
    353. D(O  12,H  13,H   4,H   1)      6.4699         0.001505   
    354. D(O  12,H  13,H   4,O   0)     12.2841         0.001505   
    355. D(O   3,H  13,H  10,H  14)   -130.6170         0.001509   
    356. D(O  12,H  13,H   4,O   3)    169.1325         0.001505   
    357. D(H  10,H  13,O   3,H   8)     79.7208         0.001607   
    358. D(H  10,H  13,O   3,H   5)   -126.0594         0.001607   
    359. D(H  10,H  13,O   3,H   4)     -7.7665         0.001607   
    360. D(H   4,H  13,O   3,H   8)     87.4873         0.001607   
    361. D(H   4,H  13,O   3,H   5)   -118.2929         0.001607   
    362. D(O  12,H  13,O   3,H   8)     63.9573         0.001607   
    363. D(H   4,H  13,O  12,H  10)      4.4019         0.391647   
    364. D(O  12,H  13,O   3,H   5)   -141.8229         0.001607   
    365. D(O  12,H  13,O   3,H   4)    -23.5300         0.001607   
    366. D(O  15,H  14,O  12,H  10)    -22.8456         0.362004   
    367. D(O  15,H  14,O  12,H  13)     79.7555         0.362004   
    368. D(H  10,H  14,O  12,H  13)    102.6011         0.362004   
    369. D(O  15,H  14,H  10,H  13)    129.9413         0.001532   
    370. D(O  15,H  14,H  10,O  12)    168.0060         0.001532   
    371. D(O  15,H  14,H  10,H   1)     64.1215         0.001532   
    372. D(O  15,H  14,H  10,O   9)      5.8384         0.001532   
    373. D(O  12,H  14,H  10,H  13)    -38.0647         0.001532   
    374. D(O  12,H  14,H  10,H   1)   -103.8845         0.001532   
    375. D(O  12,H  14,H  10,O   9)   -162.1676         0.001532   
    376. D(H  11,O  15,H  14,H  10)      5.0305         0.001552   
    377. D(H  11,O  15,H  14,O  12)     25.3818         0.001552   
    378. D(H  17,O  15,H  14,H  10)    147.8424         0.001552   
    379. D(H  17,O  15,H  14,O  12)    168.1937         0.001552   
    380. D(H  16,O  15,H  14,H  10)    -92.0279         0.001552   
    381. D(H  16,O  15,H  14,O  12)    -71.6766         0.001552   
    382. D(H  14,O  15,H  11,H   1)    -77.5111         0.001537   
    383. D(H  14,O  15,H  11,O   9)    -28.9769         0.001537   
    384. D(H  17,O  15,H  11,H   1)    143.1225         0.001537   
    385. D(H  17,O  15,H  11,O   9)   -168.3433         0.001537   
    386. D(H  16,O  15,H  11,H   1)     19.2102         0.001537   
    387. D(H  16,O  15,H  11,O   9)     67.7444         0.001537   
    388. D(O  15,H  16,O   6,H   7)     47.7996         0.001929   
    389. D(H   8,H  16,O  15,H  14)     -1.5238         0.380237   
    390. D(H   8,H  16,O  15,H  11)    -80.4121         0.380237   
    391. D(H   8,H  16,O  15,H  17)    136.3065         0.380237   
    392. D(H   7,H  16,O  15,H  11)     -5.9413         0.380237   
    393. D(H   7,H  16,O  15,H  17)   -149.2228         0.380237   
    394. D(O   6,H  16,O  15,H  14)     39.9513         0.380237   
    395. D(O   6,H  16,O  15,H  17)    177.7815         0.380237   
    396. D(H   7,H  16,H   8,H   4)    -67.9603         0.001510   
    397. D(H   7,H  16,H   8,O   3)    -93.4414         0.001510   
    398. D(H   7,H  16,H   8,O   6)     39.0921         0.001510   
    399. D(O   6,H  16,H   8,H   4)   -107.0524         0.001510   
    400. D(O   6,H  16,H   8,O   3)   -132.5335         0.001510   
    401. D(O  15,H  16,H   8,H   4)     51.5708         0.001510   
    402. D(O  15,H  16,H   8,O   3)     26.0898         0.001510   
    403. D(O  15,H  16,H   8,O   6)    158.6233         0.001510   
    404. D(H   8,H  16,H   7,H   4)     60.2840         0.001513   
    405. D(H   8,H  16,H   7,H   1)    116.7848         0.001513   
    406. D(H   8,H  16,H   7,O   0)    110.2339         0.001513   
    407. D(H   8,H  16,H   7,O   6)    -37.8326         0.001513   
    408. D(O   6,H  16,H   7,H   4)     98.1165         0.001513   
    409. D(O   6,H  16,H   7,H   1)    154.6174         0.001513   
    410. D(O   6,H  16,H   7,O   0)    148.0665         0.001513   
    411. D(O   6,H  16,O  15,H  11)    -38.9370         0.380237   
    412. D(O  15,H  16,H   7,H   4)    -64.9339         0.001513   
    413. D(O  15,H  16,H   7,H   1)     -8.4331         0.001513   
    414. D(O  15,H  16,H   7,O   0)    -14.9839         0.001513   
    415. D(H   7,H  16,O  15,H  14)     72.9470         0.380237   
    416. D(O  15,H  16,H   7,O   6)   -163.0504         0.001513   
    417. D(H   8,H  16,O   6,H   7)    108.2199         0.001929   
    418. D(H   7,H  16,O   6,H   8)   -108.2199         0.001929   
    419. D(O  15,H  16,O   6,H   8)    -60.4202         0.001929   
    -----------------------------------------------------------------

Number of atoms                         .... 18
Number of degrees of freedom            .... 419

         *************************************************************
         *                GEOMETRY OPTIMIZATION CYCLE   1            *
         *************************************************************
---------------------------------
CARTESIAN COORDINATES (ANGSTROEM)
---------------------------------
  O     -1.511782   -0.232325    1.434522
  H     -0.613900   -0.631798    1.542476
  H     -2.015087   -0.484249    2.210210
  O     -1.744551   -0.350365   -1.322141
  H     -1.890020   -0.475498   -0.368433
  H     -2.508917   -0.726304   -1.761973
  O     -0.568902    2.010658   -0.079448
  H     -0.957800    1.521230    0.658817
  H     -0.991476    1.598457   -0.842120
  O      0.972064   -1.194842    1.413465
  H      0.986177   -1.536208    0.500658
  H      1.544338   -0.420911    1.334663
  O      0.983916   -1.359847   -1.372465
  H      0.077993   -1.073694   -1.552782
  H      1.480193   -0.535792   -1.283351
  O      2.003223    1.063257   -0.092296
  H      1.144078    1.530799   -0.098089
  H      2.672690    1.741694   -0.193152

----------------------------
CARTESIAN COORDINATES (A.U.)
----------------------------
  NO LB      ZA    FRAG     MASS         X           Y           Z
   0 O     8.0000    0    15.999   -2.856854   -0.439031    2.710854
   1 H     1.0000    0     1.008   -1.160103   -1.193925    2.914857
   2 H     1.0000    0     1.008   -3.807963   -0.915098    4.176692
   3 O     8.0000    0    15.999   -3.296724   -0.662094   -2.498484
   4 H     1.0000    0     1.008   -3.571620   -0.898561   -0.696237
   5 H     1.0000    0     1.008   -4.741166   -1.372516   -3.329646
   6 O     8.0000    0    15.999   -1.075069    3.799593   -0.150135
   7 H     1.0000    0     1.008   -1.809980    2.874708    1.244984
   8 H     1.0000    0     1.008   -1.873618    3.020646   -1.591376
   9 O     8.0000    0    15.999    1.836935   -2.257924    2.671062
  10 H     1.0000    0     1.008    1.863604   -2.903012    0.946107
  11 H     1.0000    0     1.008    2.918376   -0.795407    2.522148
  12 O     8.0000    0    15.999    1.859332   -2.569738   -2.593583
  13 H     1.0000    0     1.008    0.147385   -2.028988   -2.934333
  14 H     1.0000    0     1.008    2.797159   -1.012500   -2.425182
  15 O     8.0000    0    15.999    3.785543    2.009265   -0.174414
  16 H     1.0000    0     1.008    2.161994    2.892791   -0.185361
  17 H     1.0000    0     1.008    5.050652    3.291325   -0.365004

--------------------------------
INTERNAL COORDINATES (ANGSTROEM)
--------------------------------
 O      0   0   0     0.000000000000     0.00000000     0.00000000
 H      1   0   0     0.988647980714     0.00000000     0.00000000
 H      1   2   0     0.958370230206   106.40107860     0.00000000
 O      1   2   3     2.768990022468    99.66154740   212.47552383
 H      4   1   2     0.972819842989    16.67729903   119.09110810
 H      4   1   2     0.958664540859   122.71743384   129.27539765
 O      5   4   1     2.830165499840    85.25660701    25.76878351
 H      7   5   4     0.967376158386    56.34640489   176.00376880
 H      7   5   4     0.964441304311    48.64483482    18.50046316
 O      2   1   3     1.687881569706   168.46243150   174.47289154
 H     10   2   1     0.974652010706   101.65533573   317.98448536
 H     10   2   1     0.965751768852   107.19959144    63.82750841
 O     11  10   2     1.881408538189   154.10203042    71.17408028
 H     13  11  10     0.967002710351   102.38699361   288.52530951
 H     13  11  10     0.966073914745    89.28401566    32.95438596
 O     15  13  11     2.061341819865   147.70808320   337.15441420
 H     16  15  13     0.978140691127    98.30865326   288.32341443
 H     16  15  13     0.958454359787   131.72266037   168.19370025

---------------------------
INTERNAL COORDINATES (A.U.)
---------------------------
 O      0   0   0     0.000000000000     0.00000000     0.00000000
 H      1   0   0     1.868273926403     0.00000000     0.00000000
 H      1   2   0     1.811057269992   106.40107860     0.00000000
 O      1   2   3     5.232632810026    99.66154740   212.47552383
 H      4   1   2     1.838363080894    16.67729903   119.09110810
 H      4   1   2     1.811613436525   122.71743384   129.27539765
 O      5   4   1     5.348237708370    85.25660701    25.76878351
 H      7   5   4     1.828076007834    56.34640489   176.00376880
 H      7   5   4     1.822529937389    48.64483482    18.50046316
 O      2   1   3     3.189633913237   168.46243150   174.47289154
 H     10   2   1     1.841825376111   101.65533573   317.98448536
 H     10   2   1     1.825006356481   107.19959144    63.82750841
 O     11  10   2     3.555346883199   154.10203042    71.17408028
 H     13  11  10     1.827370293324   102.38699361   288.52530951
 H     13  11  10     1.825615123993    89.28401566    32.95438596
 O     15  13  11     3.895371507944   147.70808320   337.15441420
 H     16  15  13     1.848418026674    98.30865326   288.32341443
 H     16  15  13     1.811216251860   131.72266037   168.19370025

---------------------
BASIS SET INFORMATION
---------------------
There are 2 groups of distinct atoms

 Group   1 Type O   : 19s6p3d2f contracted to 5s4p3d2f pattern {88111/3111/111/11}
 Group   2 Type H   : 6s3p2d contracted to 4s3p2d pattern {3111/111/11}

Atom   0O    basis set group =>   1
Atom   1H    basis set group =>   2
Atom   2H    basis set group =>   2
Atom   3O    basis set group =>   1
Atom   4H    basis set group =>   2
Atom   5H    basis set group =>   2
Atom   6O    basis set group =>   1
Atom   7H    basis set group =>   2
Atom   8H    basis set group =>   2
Atom   9O    basis set group =>   1
Atom  10H    basis set group =>   2
Atom  11H    basis set group =>   2
Atom  12O    basis set group =>   1
Atom  13H    basis set group =>   2
Atom  14H    basis set group =>   2
Atom  15O    basis set group =>   1
Atom  16H    basis set group =>   2
Atom  17H    basis set group =>   2
---------------------------------
AUXILIARY/C BASIS SET INFORMATION
---------------------------------
There are 2 groups of distinct atoms

 Group   1 Type O   : 8s6p5d3f1g contracted to 8s6p4d3f1g pattern {11111111/111111/2111/111/1}
 Group   2 Type H   : 4s3p2d contracted to 4s2p1d pattern {1111/21/2}

Atom   0O    basis set group =>   1
Atom   1H    basis set group =>   2
Atom   2H    basis set group =>   2
Atom   3O    basis set group =>   1
Atom   4H    basis set group =>   2
Atom   5H    basis set group =>   2
Atom   6O    basis set group =>   1
Atom   7H    basis set group =>   2
Atom   8H    basis set group =>   2
Atom   9O    basis set group =>   1
Atom  10H    basis set group =>   2
Atom  11H    basis set group =>   2
Atom  12O    basis set group =>   1
Atom  13H    basis set group =>   2
Atom  14H    basis set group =>   2
Atom  15O    basis set group =>   1
Atom  16H    basis set group =>   2
Atom  17H    basis set group =>   2
----------------------------------
AUXILIARY/JK BASIS SET INFORMATION
----------------------------------
There are 2 groups of distinct atoms

 Group   1 Type O   : 14s10p6d2f1g contracted to 10s8p4d2f1g pattern {5111111111/31111111/3111/11/1}
 Group   2 Type H   : 4s2p2d contracted to 2s2p2d pattern {31/11/11}

Atom   0O    basis set group =>   1
Atom   1H    basis set group =>   2
Atom   2H    basis set group =>   2
Atom   3O    basis set group =>   1
Atom   4H    basis set group =>   2
Atom   5H    basis set group =>   2
Atom   6O    basis set group =>   1
Atom   7H    basis set group =>   2
Atom   8H    basis set group =>   2
Atom   9O    basis set group =>   1
Atom  10H    basis set group =>   2
Atom  11H    basis set group =>   2
Atom  12O    basis set group =>   1
Atom  13H    basis set group =>   2
Atom  14H    basis set group =>   2
Atom  15O    basis set group =>   1
Atom  16H    basis set group =>   2
Atom  17H    basis set group =>   2


           ************************************************************
           *        Program running with 24 parallel MPI-processes    *
           *              working on a common directory               *
           ************************************************************
------------------------------------------------------------------------------
                           ORCA GTO INTEGRAL CALCULATION
                           -- RI-GTO INTEGRALS CHOSEN --
------------------------------------------------------------------------------

                         BASIS SET STATISTICS AND STARTUP INFO

Gaussian basis set:
 # of primitive gaussian shells          ...  312
 # of primitive gaussian functions       ...  696
 # of contracted shells                  ...  192
 # of contracted basis functions         ...  552
 Highest angular momentum                ...    3
 Maximum contraction depth               ...    8
Auxiliary gaussian basis set:
 # of primitive gaussian shells          ...  294
 # of primitive gaussian functions       ...  822
 # of contracted shells                  ...  222
 # of contracted aux-basis functions     ...  678
 Highest angular momentum                ...    4
 Maximum contraction depth               ...    5
Ratio of auxiliary to basis functions    ...  1.23
Integral package used                  ... LIBINT
 One Electron integrals                  ... done
 Ordering auxiliary basis shells         ... done
 Integral threshhold             Thresh  ...  2.500e-11
 Primitive cut-off               TCut    ...  2.500e-12
 Pre-screening matrix                    ... done
 Shell pair data                         ... 
 Ordering of the shell pairs             ... done (   0.003 sec) 17765 of 18528 pairs
 Determination of significant pairs      ... done (   0.000 sec)
 Creation of shell pair data             ... done (   0.002 sec)
 Storage of shell pair data              ... done (   0.002 sec)
 Shell pair data done in (   0.007 sec)
 Computing two index integrals           ... done
 Cholesky decomposition of the V-matrix  ... done


Timings:
 Total evaluation time                   ...   0.464 sec (  0.008 min)
 One electron matrix time                ...   0.130 sec (  0.002 min) = 28.1%
 Schwartz matrix evaluation time         ...   0.219 sec (  0.004 min) = 47.2%
 Two index repulsion integral time       ...   0.009 sec (  0.000 min) =  1.9%
 Cholesky decomposition of V             ...   0.073 sec (  0.001 min) = 15.7%
 Three index repulsion integral time     ...   0.000 sec (  0.000 min) =  0.0%



           ************************************************************
           *        Program running with 24 parallel MPI-processes    *
           *              working on a common directory               *
           ************************************************************
-------------------------------------------------------------------------------
                                 ORCA SCF
-------------------------------------------------------------------------------

------------
SCF SETTINGS
------------
Hamiltonian:
 Density Functional     Method          .... DFT(GTOs)
 Exchange Functional    Exchange        .... B88
   X-Alpha parameter    XAlpha          ....  0.666667
   Becke's b parameter  XBeta           ....  0.004200
 Correlation Functional Correlation     .... LYP
 LDA part of GGA corr.  LDAOpt          .... VWN-5
 Gradients option       PostSCFGGA      .... off
 Hybrid DFT is turned on
   Fraction HF Exchange ScalHFX         ....  0.710000
   Scaling of DF-GGA-X  ScalDFX         ....  0.290000
   Scaling of DF-GGA-C  ScalDFC         ....  0.540000
   Scaling of DF-LDA-C  ScalLDAC        ....  0.540000
   Perturbative correction              ....  1.000000
   Density functional embedding theory  .... OFF
 RI-approximation to the Coulomb term is turned on
   Number of auxiliary basis functions  .... 678
   RI-JK (J+K treated both via RI)      .... on


General Settings:
 Integral files         IntName         .... 09_H2O_6_prism
 Hartree-Fock type      HFTyp           .... RHF
 Total Charge           Charge          ....    0
 Multiplicity           Mult            ....    1
 Number of Electrons    NEL             ....   60
 Basis Dimension        Dim             ....  552
 Nuclear Repulsion      ENuc            ....    304.8722684032 Eh

Convergence Acceleration:
 DIIS                   CNVDIIS         .... on
   Start iteration      DIISMaxIt       ....    12
   Startup error        DIISStart       ....  0.200000
   # of expansion vecs  DIISMaxEq       ....     5
   Bias factor          DIISBfac        ....   1.050
   Max. coefficient     DIISMaxC        ....  10.000
 Newton-Raphson         CNVNR           .... off
 SOSCF                  CNVSOSCF        .... on
   Start iteration      SOSCFMaxIt      ....   150
   Startup grad/error   SOSCFStart      ....  0.003300
 Level Shifting         CNVShift        .... on
   Level shift para.    LevelShift      ....    0.2500
   Turn off err/grad.   ShiftErr        ....    0.0010
 Zerner damping         CNVZerner       .... off
 Static damping         CNVDamp         .... on
   Fraction old density DampFac         ....    0.7000
   Max. Damping (<1)    DampMax         ....    0.9800
   Min. Damping (>=0)   DampMin         ....    0.0000
   Turn off err/grad.   DampErr         ....    0.1000
 Fernandez-Rico         CNVRico         .... off

SCF Procedure:
 Maximum # iterations   MaxIter         ....   125
 SCF integral mode      SCFMode         .... Direct
   Integral package                     .... LIBINT
 Reset frequency        DirectResetFreq ....    20
 Integral Threshold     Thresh          ....  2.500e-11 Eh
 Primitive CutOff       TCut            ....  2.500e-12 Eh

Convergence Tolerance:
 Convergence Check Mode ConvCheckMode   .... Total+1el-Energy
 Convergence forced     ConvForced      .... 0
 Energy Change          TolE            ....  1.000e-08 Eh
 1-El. energy change                    ....  1.000e-05 Eh
 Orbital Gradient       TolG            ....  1.000e-05
 Orbital Rotation angle TolX            ....  1.000e-05
 DIIS Error             TolErr          ....  5.000e-07


Diagonalization of the overlap matrix:
Smallest eigenvalue                        ... 3.067e-05
Time for diagonalization                   ...    0.060 sec
Threshold for overlap eigenvalues          ... 1.000e-08
Number of eigenvalues below threshold      ... 0
Time for construction of square roots      ...    0.048 sec
Total time needed                          ...    0.111 sec

-------------------
DFT GRID GENERATION
-------------------

General Integration Accuracy     IntAcc      ...  4.670
Radial Grid Type                 RadialGrid  ... Gauss-Chebyshev
Angular Grid (max. acc.)         AngularGrid ... Lebedev-302
Angular grid pruning method      GridPruning ... 3 (G Style)
Weight generation scheme         WeightScheme... Becke
Basis function cutoff            BFCut       ...    1.0000e-11
Integration weight cutoff        WCut        ...    1.0000e-14
Grids for H and He will be reduced by one unit

# of grid points (after initial pruning)     ...  78000 (   0.0 sec)
# of grid points (after weights+screening)   ...  71466 (   0.0 sec)
nearest neighbour list constructed           ...    0.0 sec
Grid point re-assignment to atoms done       ...    0.0 sec
Grid point division into batches done        ...    0.2 sec
Reduced shell lists constructed in    0.3 sec

Total number of grid points                  ...    71466
Total number of batches                      ...     1127
Average number of points per batch           ...       63
Average number of grid points per atom       ...     3970
Average number of shells per batch           ...   143.62 (74.80%)
Average number of basis functions per batch  ...   403.12 (73.03%)
Average number of large shells per batch     ...   117.60 (81.88%)
Average number of large basis fcns per batch ...   322.44 (79.98%)
Average number of aux-shells per batch       ...   143.62 (64.70%)
Average number of aux functions per batch    ...   403.12 (59.46%)
Maximum spatial batch extension              ...   2.66,  2.86,  2.23 au
Average spatial batch extension              ...   0.04,  0.04,  0.04 au

Time for grid setup =    0.364 sec

------------------------------
INITIAL GUESS: MODEL POTENTIAL
------------------------------
Loading Hartree-Fock densities                     ... done
Calculating cut-offs                               ... done
Setting up the integral package                    ... done
Initializing the effective Hamiltonian             ... done
Starting the Coulomb interaction                   ... done (   0.0 sec)
Reading the grid                                   ... done
Mapping shells                                     ... done
Starting the XC term evaluation                    ... done (   0.2 sec)
  promolecular density results
     # of electrons  =     59.993462020
     EX              =    -52.745719091
     EC              =     -0.252101195
     EX+EC           =    -52.997820285
Transforming the Hamiltonian                       ... done (   0.0 sec)
Diagonalizing the Hamiltonian                      ... done (   0.0 sec)
Back transforming the eigenvectors                 ... done (   0.0 sec)
Now organizing SCF variables                       ... done
                      ------------------
                      INITIAL GUESS DONE (   0.7 sec)
                      ------------------
--------------
SCF ITERATIONS
--------------
ITER       Energy         Delta-E        Max-DP      RMS-DP      [F,P]     Damp
  0   -457.1332631943   0.000000000000 0.03926740  0.00053991  0.3439783 0.7000
  1   -456.6875799345   0.445683259809 0.03799470  0.00056485  0.2785633 0.7000
                               ***Turning on DIIS***
  2   -456.8118026160  -0.124222681519 0.01667851  0.00029769  0.1288599 0.7000
  3   -457.1505958163  -0.338793200297 0.03314000  0.00029654  0.0413682 0.0000
  4   -457.5679936659  -0.417397849574 0.00903044  0.00016270  0.0694012 0.0000
  5   -457.5847436618  -0.016749995932 0.00757826  0.00011146  0.0372269 0.0000
  6   -457.5900184803  -0.005274818496 0.00440781  0.00006416  0.0164998 0.0000
  7   -457.5912321698  -0.001213689492 0.00136869  0.00002234  0.0050328 0.0000
                      *** Initiating the SOSCF procedure ***
                           *** Shutting down DIIS ***
                      *** Re-Reading the Fockian *** 
                      *** Removing any level shift *** 
ITER      Energy       Delta-E        Grad      Rot      Max-DP    RMS-DP
  8   -457.59135440  -0.0001222289  0.000168  0.000168  0.000453  0.000006
  9   -457.59135977  -0.0000053758  0.000035  0.000059  0.000108  0.000001
 10   -457.59135991  -0.0000001314  0.000015  0.000022  0.000040  0.000001
                  ***Gradient check signals convergence***
              ***Rediagonalizing the Fockian in SOSCF/NRSCF***

               *****************************************************
               *                     SUCCESS                       *
               *           SCF CONVERGED AFTER  11 CYCLES          *
               *****************************************************


----------------
TOTAL SCF ENERGY
----------------

Total Energy       :         -457.59135996 Eh          -12451.69394 eV

Components:
Nuclear Repulsion  :          304.87226840 Eh            8295.99618 eV
Electronic Energy  :         -762.46362836 Eh          -20747.69012 eV
One Electron Energy:        -1237.78212414 Eh          -33681.76395 eV
Two Electron Energy:          475.31849578 Eh           12934.07383 eV

Virial components:
Potential Energy   :         -913.71752777 Eh          -24863.51797 eV
Kinetic Energy     :          456.12616782 Eh           12411.82403 eV
Virial Ratio       :            2.00321225


DFT components:
N(Alpha)           :       29.999848424282 electrons
N(Beta)            :       29.999848424282 electrons
N(Total)           :       59.999696848563 electrons
E(X)               :      -15.636894499042 Eh       
E(C)               :       -1.124810120804 Eh       
E(XC)              :      -16.761704619846 Eh       
DFET-embed. en.    :        0.000000000000 Eh       

---------------
SCF CONVERGENCE
---------------

  Last Energy change         ...   -5.1504e-08  Tolerance :   1.0000e-08
  Last MAX-Density change    ...    2.6066e-05  Tolerance :   1.0000e-07
  Last RMS-Density change    ...    2.5292e-07  Tolerance :   5.0000e-09
  Last Orbital Gradient      ...    1.5742e-06  Tolerance :   1.0000e-05
  Last Orbital Rotation      ...    2.5250e-06  Tolerance :   1.0000e-05

             **** THE GBW FILE WAS UPDATED (09_H2O_6_prism.gbw) ****
             **** DENSITY FILE WAS UPDATED (09_H2O_6_prism.scfp) ****
             **** ENERGY FILE WAS UPDATED (09_H2O_6_prism.en.tmp) ****
             **** THE GBW FILE WAS UPDATED (09_H2O_6_prism.gbw) ****
             **** DENSITY FILE WAS UPDATED (09_H2O_6_prism.scfp) ****
----------------
ORBITAL ENERGIES
----------------

  NO   OCC          E(Eh)            E(eV) 
   0   2.0000     -20.070079      -546.1346 
   1   2.0000     -20.064964      -545.9954 
   2   2.0000     -20.054743      -545.7173 
   3   2.0000     -20.052988      -545.6696 
   4   2.0000     -20.041894      -545.3677 
   5   2.0000     -20.033476      -545.1386 
   6   2.0000      -1.259411       -34.2703 
   7   2.0000      -1.245434       -33.8900 
   8   2.0000      -1.241614       -33.7860 
   9   2.0000      -1.232101       -33.5272 
  10   2.0000      -1.222339       -33.2615 
  11   2.0000      -1.211001       -32.9530 
  12   2.0000      -0.687473       -18.7071 
  13   2.0000      -0.671402       -18.2698 
  14   2.0000      -0.665781       -18.1168 
  15   2.0000      -0.651023       -17.7152 
  16   2.0000      -0.641044       -17.4437 
  17   2.0000      -0.637578       -17.3494 
  18   2.0000      -0.563772       -15.3410 
  19   2.0000      -0.557315       -15.1653 
  20   2.0000      -0.534501       -14.5445 
  21   2.0000      -0.524074       -14.2608 
  22   2.0000      -0.514434       -13.9985 
  23   2.0000      -0.490061       -13.3352 
  24   2.0000      -0.462088       -12.5740 
  25   2.0000      -0.460227       -12.5234 
  26   2.0000      -0.449438       -12.2298 
  27   2.0000      -0.445914       -12.1339 
  28   2.0000      -0.438022       -11.9192 
  29   2.0000      -0.422217       -11.4891 
  30   0.0000       0.006684         0.1819 
  31   0.0000       0.021427         0.5831 
  32   0.0000       0.025145         0.6842 
  33   0.0000       0.043965         1.1964 
  34   0.0000       0.050467         1.3733 
  35   0.0000       0.052399         1.4258 
  36   0.0000       0.058569         1.5938 
  37   0.0000       0.061886         1.6840 
  38   0.0000       0.062596         1.7033 
  39   0.0000       0.074567         2.0291 
  40   0.0000       0.081511         2.2180 
  41   0.0000       0.085307         2.3213 
  42   0.0000       0.114684         3.1207 
  43   0.0000       0.122130         3.3233 
  44   0.0000       0.123976         3.3736 
  45   0.0000       0.142699         3.8830 
  46   0.0000       0.149179         4.0594 
  47   0.0000       0.150985         4.1085 
  48   0.0000       0.157932         4.2976 
  49   0.0000       0.165380         4.5002 
  50   0.0000       0.171974         4.6797 
  51   0.0000       0.176128         4.7927 
  52   0.0000       0.178981         4.8703 
  53   0.0000       0.184840         5.0297 
  54   0.0000       0.188894         5.1401 
  55   0.0000       0.198120         5.3911 
  56   0.0000       0.200778         5.4634 
  57   0.0000       0.202697         5.5157 
  58   0.0000       0.207896         5.6571 
  59   0.0000       0.214330         5.8322 
  60   0.0000       0.218777         5.9532 
  61   0.0000       0.223060         6.0698 
  62   0.0000       0.228902         6.2287 
  63   0.0000       0.234150         6.3715 
  64   0.0000       0.237604         6.4655 
  65   0.0000       0.248093         6.7510 
  66   0.0000       0.259723         7.0674 
  67   0.0000       0.269653         7.3376 
  68   0.0000       0.283967         7.7271 
  69   0.0000       0.295625         8.0444 
  70   0.0000       0.298565         8.1244 
  71   0.0000       0.317080         8.6282 
  72   0.0000       0.326264         8.8781 
  73   0.0000       0.331479         9.0200 
  74   0.0000       0.334623         9.1056 
  75   0.0000       0.343050         9.3349 
  76   0.0000       0.352741         9.5986 
  77   0.0000       0.356498         9.7008 
  78   0.0000       0.366344         9.9687 
  79   0.0000       0.373000        10.1498 
  80   0.0000       0.377301        10.2669 
  81   0.0000       0.380438        10.3522 
  82   0.0000       0.383533        10.4365 
  83   0.0000       0.389999        10.6124 
  84   0.0000       0.392441        10.6789 
  85   0.0000       0.398851        10.8533 
  86   0.0000       0.402665        10.9571 
  87   0.0000       0.407341        11.0843 
  88   0.0000       0.416090        11.3224 
  89   0.0000       0.416457        11.3324 
  90   0.0000       0.424574        11.5533 
  91   0.0000       0.429483        11.6868 
  92   0.0000       0.439592        11.9619 
  93   0.0000       0.441342        12.0095 
  94   0.0000       0.445546        12.1239 
  95   0.0000       0.449575        12.2336 
  96   0.0000       0.458814        12.4850 
  97   0.0000       0.461719        12.5640 
  98   0.0000       0.467769        12.7286 
  99   0.0000       0.477058        12.9814 
 100   0.0000       0.479165        13.0387 
 101   0.0000       0.482398        13.1267 
 102   0.0000       0.487027        13.2527 
 103   0.0000       0.497117        13.5272 
 104   0.0000       0.501380        13.6433 
 105   0.0000       0.513073        13.9614 
 106   0.0000       0.517441        14.0803 
 107   0.0000       0.525404        14.2970 
 108   0.0000       0.529130        14.3984 
 109   0.0000       0.543571        14.7913 
 110   0.0000       0.550961        14.9924 
 111   0.0000       0.560945        15.2641 
 112   0.0000       0.578113        15.7313 
 113   0.0000       0.587795        15.9947 
 114   0.0000       0.600885        16.3509 
 115   0.0000       0.607509        16.5312 
 116   0.0000       0.620478        16.8841 
 117   0.0000       0.642780        17.4909 
 118   0.0000       0.648974        17.6595 
 119   0.0000       0.661513        18.0007 
 120   0.0000       0.678123        18.4527 
 121   0.0000       0.689744        18.7689 
 122   0.0000       0.701418        19.0865 
 123   0.0000       0.711705        19.3665 
 124   0.0000       0.715492        19.4695 
 125   0.0000       0.724046        19.7023 
 126   0.0000       0.736443        20.0396 
 127   0.0000       0.747075        20.3289 
 128   0.0000       0.750365        20.4185 
 129   0.0000       0.755652        20.5623 
 130   0.0000       0.760209        20.6863 
 131   0.0000       0.767842        20.8940 
 132   0.0000       0.775589        21.1049 
 133   0.0000       0.792114        21.5545 
 134   0.0000       0.796265        21.6675 
 135   0.0000       0.807708        21.9788 
 136   0.0000       0.816433        22.2163 
 137   0.0000       0.820231        22.3196 
 138   0.0000       0.832004        22.6400 
 139   0.0000       0.838382        22.8135 
 140   0.0000       0.843286        22.9470 
 141   0.0000       0.850541        23.1444 
 142   0.0000       0.866240        23.5716 
 143   0.0000       0.869543        23.6615 
 144   0.0000       0.875476        23.8229 
 145   0.0000       0.884474        24.0677 
 146   0.0000       0.889823        24.2133 
 147   0.0000       0.898991        24.4628 
 148   0.0000       0.903432        24.5836 
 149   0.0000       0.918131        24.9836 
 150   0.0000       0.924959        25.1694 
 151   0.0000       0.931551        25.3488 
 152   0.0000       0.945527        25.7291 
 153   0.0000       0.953996        25.9595 
 154   0.0000       0.956040        26.0152 
 155   0.0000       0.959270        26.1031 
 156   0.0000       0.962411        26.1885 
 157   0.0000       0.975494        26.5445 
 158   0.0000       0.985005        26.8034 
 159   0.0000       0.992116        26.9968 
 160   0.0000       0.992796        27.0154 
 161   0.0000       1.004284        27.3280 
 162   0.0000       1.007706        27.4211 
 163   0.0000       1.027576        27.9618 
 164   0.0000       1.029756        28.0211 
 165   0.0000       1.039173        28.2773 
 166   0.0000       1.046578        28.4788 
 167   0.0000       1.059536        28.8314 
 168   0.0000       1.065040        28.9812 
 169   0.0000       1.073589        29.2138 
 170   0.0000       1.076598        29.2957 
 171   0.0000       1.089181        29.6381 
 172   0.0000       1.090932        29.6858 
 173   0.0000       1.094958        29.7953 
 174   0.0000       1.102090        29.9894 
 175   0.0000       1.113247        30.2930 
 176   0.0000       1.119436        30.4614 
 177   0.0000       1.128093        30.6970 
 178   0.0000       1.134019        30.8582 
 179   0.0000       1.139609        31.0103 
 180   0.0000       1.153047        31.3760 
 181   0.0000       1.158515        31.5248 
 182   0.0000       1.166131        31.7320 
 183   0.0000       1.171100        31.8673 
 184   0.0000       1.180238        32.1159 
 185   0.0000       1.190217        32.3875 
 186   0.0000       1.204238        32.7690 
 187   0.0000       1.209529        32.9129 
 188   0.0000       1.221669        33.2433 
 189   0.0000       1.228320        33.4243 
 190   0.0000       1.230546        33.4849 
 191   0.0000       1.243364        33.8336 
 192   0.0000       1.258966        34.2582 
 193   0.0000       1.265035        34.4234 
 194   0.0000       1.273556        34.6552 
 195   0.0000       1.281601        34.8741 
 196   0.0000       1.296843        35.2889 
 197   0.0000       1.306207        35.5437 
 198   0.0000       1.311540        35.6888 
 199   0.0000       1.321244        35.9529 
 200   0.0000       1.331073        36.2203 
 201   0.0000       1.343967        36.5712 
 202   0.0000       1.347113        36.6568 
 203   0.0000       1.356976        36.9252 
 204   0.0000       1.366816        37.1930 
 205   0.0000       1.382967        37.6325 
 206   0.0000       1.389304        37.8049 
 207   0.0000       1.397592        38.0304 
 208   0.0000       1.403613        38.1942 
 209   0.0000       1.426095        38.8060 
 210   0.0000       1.432198        38.9721 
 211   0.0000       1.442783        39.2601 
 212   0.0000       1.463491        39.8236 
 213   0.0000       1.473289        40.0902 
 214   0.0000       1.477905        40.2158 
 215   0.0000       1.487790        40.4848 
 216   0.0000       1.493336        40.6357 
 217   0.0000       1.514774        41.2191 
 218   0.0000       1.522027        41.4164 
 219   0.0000       1.527042        41.5529 
 220   0.0000       1.528291        41.5869 
 221   0.0000       1.541928        41.9580 
 222   0.0000       1.553781        42.2805 
 223   0.0000       1.565236        42.5922 
 224   0.0000       1.587659        43.2024 
 225   0.0000       1.593250        43.3545 
 226   0.0000       1.608445        43.7680 
 227   0.0000       1.619912        44.0800 
 228   0.0000       1.630779        44.3758 
 229   0.0000       1.641095        44.6565 
 230   0.0000       1.650053        44.9002 
 231   0.0000       1.657260        45.0963 
 232   0.0000       1.668851        45.4117 
 233   0.0000       1.679055        45.6894 
 234   0.0000       1.711953        46.5846 
 235   0.0000       1.719861        46.7998 
 236   0.0000       1.728862        47.0447 
 237   0.0000       1.731133        47.1065 
 238   0.0000       1.747374        47.5485 
 239   0.0000       1.751821        47.6695 
 240   0.0000       1.777116        48.3578 
 241   0.0000       1.788144        48.6579 
 242   0.0000       1.799902        48.9778 
 243   0.0000       1.811190        49.2850 
 244   0.0000       1.827204        49.7207 
 245   0.0000       1.844230        50.1841 
 246   0.0000       1.849109        50.3168 
 247   0.0000       1.850660        50.3590 
 248   0.0000       1.863662        50.7128 
 249   0.0000       1.877543        51.0905 
 250   0.0000       1.907851        51.9153 
 251   0.0000       1.913287        52.0632 
 252   0.0000       1.916639        52.1544 
 253   0.0000       1.932279        52.5800 
 254   0.0000       1.949466        53.0477 
 255   0.0000       1.958875        53.3037 
 256   0.0000       1.985632        54.0318 
 257   0.0000       2.000023        54.4234 
 258   0.0000       2.014654        54.8215 
 259   0.0000       2.044512        55.6340 
 260   0.0000       2.066471        56.2315 
 261   0.0000       2.077571        56.5336 
 262   0.0000       2.091210        56.9047 
 263   0.0000       2.111826        57.4657 
 264   0.0000       2.125655        57.8420 
 265   0.0000       2.150935        58.5299 
 266   0.0000       2.157393        58.7057 
 267   0.0000       2.203934        59.9721 
 268   0.0000       2.227114        60.6029 
 269   0.0000       2.237424        60.8834 
 270   0.0000       2.249011        61.1987 
 271   0.0000       2.284152        62.1549 
 272   0.0000       2.290747        62.3344 
 273   0.0000       2.317461        63.0613 
 274   0.0000       2.324093        63.2418 
 275   0.0000       2.340625        63.6916 
 276   0.0000       2.356984        64.1368 
 277   0.0000       2.371669        64.5364 
 278   0.0000       2.388134        64.9844 
 279   0.0000       2.389512        65.0219 
 280   0.0000       2.403920        65.4140 
 281   0.0000       2.416232        65.7490 
 282   0.0000       2.426176        66.0196 
 283   0.0000       2.434038        66.2335 
 284   0.0000       2.446961        66.5852 
 285   0.0000       2.457591        66.8744 
 286   0.0000       2.469379        67.1952 
 287   0.0000       2.472511        67.2805 
 288   0.0000       2.489589        67.7452 
 289   0.0000       2.500393        68.0391 
 290   0.0000       2.530848        68.8679 
 291   0.0000       2.534102        68.9564 
 292   0.0000       2.543998        69.2257 
 293   0.0000       2.559020        69.6345 
 294   0.0000       2.571907        69.9852 
 295   0.0000       2.584592        70.3303 
 296   0.0000       2.596522        70.6550 
 297   0.0000       2.602861        70.8274 
 298   0.0000       2.607313        70.9486 
 299   0.0000       2.622999        71.3754 
 300   0.0000       2.634728        71.6946 
 301   0.0000       2.641871        71.8890 
 302   0.0000       2.648887        72.0799 
 303   0.0000       2.661300        72.4177 
 304   0.0000       2.672035        72.7098 
 305   0.0000       2.684499        73.0489 
 306   0.0000       2.696217        73.3678 
 307   0.0000       2.702041        73.5263 
 308   0.0000       2.711560        73.7853 
 309   0.0000       2.715457        73.8913 
 310   0.0000       2.737050        74.4789 
 311   0.0000       2.747831        74.7723 
 312   0.0000       2.755840        74.9902 
 313   0.0000       2.763980        75.2117 
 314   0.0000       2.782654        75.7199 
 315   0.0000       2.790666        75.9379 
 316   0.0000       2.811984        76.5180 
 317   0.0000       2.823267        76.8250 
 318   0.0000       2.829206        76.9866 
 319   0.0000       2.842996        77.3619 
 320   0.0000       2.849808        77.5472 
 321   0.0000       2.861115        77.8549 
 322   0.0000       2.871746        78.1442 
 323   0.0000       2.883853        78.4736 
 324   0.0000       2.888400        78.5973 
 325   0.0000       2.911829        79.2349 
 326   0.0000       2.921570        79.5000 
 327   0.0000       2.924846        79.5891 
 328   0.0000       2.929998        79.7293 
 329   0.0000       2.956706        80.4561 
 330   0.0000       2.963713        80.6467 
 331   0.0000       2.982051        81.1457 
 332   0.0000       3.007249        81.8314 
 333   0.0000       3.025366        82.3244 
 334   0.0000       3.031342        82.4870 
 335   0.0000       3.037374        82.6511 
 336   0.0000       3.054787        83.1250 
 337   0.0000       3.070004        83.5390 
 338   0.0000       3.086177        83.9791 
 339   0.0000       3.107400        84.5567 
 340   0.0000       3.124963        85.0346 
 341   0.0000       3.152767        85.7911 
 342   0.0000       3.167880        86.2024 
 343   0.0000       3.176989        86.4503 
 344   0.0000       3.183772        86.6348 
 345   0.0000       3.192499        86.8723 
 346   0.0000       3.228647        87.8560 
 347   0.0000       3.305975        89.9602 
 348   0.0000       3.790097       103.1338 
 349   0.0000       3.820649       103.9652 
 350   0.0000       3.858630       104.9987 
 351   0.0000       3.882802       105.6564 
 352   0.0000       3.938646       107.1760 
 353   0.0000       3.944506       107.3355 
 354   0.0000       3.979020       108.2747 
 355   0.0000       4.011668       109.1630 
 356   0.0000       4.032579       109.7320 
 357   0.0000       4.037794       109.8740 
 358   0.0000       4.053842       110.3107 
 359   0.0000       4.063046       110.5611 
 360   0.0000       4.083620       111.1209 
 361   0.0000       4.103131       111.6519 
 362   0.0000       4.111038       111.8670 
 363   0.0000       4.115952       112.0007 
 364   0.0000       4.128857       112.3519 
 365   0.0000       4.148737       112.8929 
 366   0.0000       4.166712       113.3820 
 367   0.0000       4.197592       114.2223 
 368   0.0000       4.217588       114.7664 
 369   0.0000       4.230919       115.1292 
 370   0.0000       4.235421       115.2517 
 371   0.0000       4.246041       115.5407 
 372   0.0000       4.255782       115.8057 
 373   0.0000       4.259704       115.9124 
 374   0.0000       4.285526       116.6151 
 375   0.0000       4.287802       116.6770 
 376   0.0000       4.295448       116.8851 
 377   0.0000       4.304311       117.1263 
 378   0.0000       4.325583       117.7051 
 379   0.0000       4.333607       117.9235 
 380   0.0000       4.340333       118.1065 
 381   0.0000       4.344758       118.2269 
 382   0.0000       4.360343       118.6510 
 383   0.0000       4.375821       119.0722 
 384   0.0000       4.409795       119.9966 
 385   0.0000       4.423689       120.3747 
 386   0.0000       4.433375       120.6383 
 387   0.0000       4.437446       120.7490 
 388   0.0000       4.451457       121.1303 
 389   0.0000       4.467967       121.5796 
 390   0.0000       4.473937       121.7420 
 391   0.0000       4.483288       121.9965 
 392   0.0000       4.512691       122.7966 
 393   0.0000       4.525779       123.1527 
 394   0.0000       4.535729       123.4235 
 395   0.0000       4.536319       123.4395 
 396   0.0000       4.562010       124.1386 
 397   0.0000       4.566157       124.2515 
 398   0.0000       4.591803       124.9493 
 399   0.0000       4.592643       124.9722 
 400   0.0000       4.617315       125.6435 
 401   0.0000       4.622411       125.7822 
 402   0.0000       4.632604       126.0596 
 403   0.0000       4.651268       126.5674 
 404   0.0000       4.657429       126.7351 
 405   0.0000       4.671175       127.1091 
 406   0.0000       4.677523       127.2819 
 407   0.0000       4.690981       127.6481 
 408   0.0000       4.730565       128.7252 
 409   0.0000       4.756793       129.4389 
 410   0.0000       4.767995       129.7437 
 411   0.0000       4.778039       130.0170 
 412   0.0000       4.794170       130.4560 
 413   0.0000       4.818241       131.1110 
 414   0.0000       4.826677       131.3406 
 415   0.0000       4.866226       132.4168 
 416   0.0000       4.891571       133.1064 
 417   0.0000       4.897021       133.2547 
 418   0.0000       4.913884       133.7136 
 419   0.0000       4.938482       134.3829 
 420   0.0000       4.969373       135.2235 
 421   0.0000       4.996845       135.9711 
 422   0.0000       5.011679       136.3747 
 423   0.0000       5.034717       137.0016 
 424   0.0000       5.064295       137.8065 
 425   0.0000       5.074810       138.0926 
 426   0.0000       5.103928       138.8849 
 427   0.0000       5.132407       139.6599 
 428   0.0000       5.138353       139.8217 
 429   0.0000       5.149986       140.1382 
 430   0.0000       5.168857       140.6517 
 431   0.0000       5.194486       141.3492 
 432   0.0000       5.196415       141.4016 
 433   0.0000       5.212864       141.8492 
 434   0.0000       5.231170       142.3474 
 435   0.0000       5.240141       142.5915 
 436   0.0000       5.247392       142.7888 
 437   0.0000       5.262304       143.1946 
 438   0.0000       5.280569       143.6916 
 439   0.0000       5.283526       143.7720 
 440   0.0000       5.291377       143.9857 
 441   0.0000       5.308883       144.4621 
 442   0.0000       5.322607       144.8355 
[...]
      1       0.026195   0.002086  -0.003390   0.000167   0.000073  -0.000832
      2      -0.009546  -0.000754   0.001740   0.000265   0.000111  -0.001265
      3       0.886753   0.063503  -0.135695   0.034586   0.005571  -0.041757
      4      -0.397869  -0.028374   0.055869  -0.013919  -0.001667   0.017834
      5       0.111712   0.006262  -0.009763   0.000880   0.000558  -0.001488
      6      -0.052241  -0.004178   0.011846   0.002834  -0.000013  -0.009994
      7      -0.014175  -0.000272   0.002744   0.002706   0.000189  -0.007304
      8       0.061853   0.004726  -0.010298  -0.014805  -0.000894   0.017021
      9       0.000922   0.000184   0.005526  -0.015134  -0.000802   0.002233
     10       0.001118   0.000618   0.004137  -0.010377  -0.000618   0.001415
     11      -0.005740  -0.001245  -0.018995   0.050732   0.006062  -0.003164
     12      -0.016486  -0.003742  -0.048456   0.125264   0.010939  -0.009445
     13      -0.015382  -0.006515  -0.043394   0.112283   0.012061  -0.009867
     14       0.085139   0.021705   0.331909  -0.888379  -0.100053   0.071720
     15      -0.005189  -0.001059  -0.046386   0.122283   0.001470  -0.024187
     16      -0.002820  -0.000336  -0.022219   0.058398   0.001443  -0.011447
     17      -0.005043  -0.001512  -0.035077   0.094375   0.005251  -0.016261
     18       0.000732  -0.002697  -0.000575   0.001335  -0.000904   0.030425
     19       0.001575  -0.004205  -0.000809   0.001981  -0.000866   0.035221
     20      -0.002325   0.001239   0.001642  -0.007022  -0.002592  -0.025288
     21      -0.015918   0.034744   0.009647  -0.039408  -0.003827  -0.343138
     22      -0.016313   0.037224   0.012795  -0.044153  -0.003798  -0.425023
     23       0.039908  -0.065880  -0.023320   0.077367   0.003325   0.729772
     24       0.000973   0.027495  -0.000927   0.017766   0.017460  -0.144423
     25       0.000882   0.020401  -0.001347   0.014444   0.015966  -0.131867
     26      -0.007371   0.047675  -0.001909   0.032077   0.037273  -0.327728
     27       0.000081   0.001205  -0.001649  -0.001135   0.004150  -0.000429
     28      -0.000219   0.002330   0.018114   0.007214   0.001914  -0.001168
     29       0.007139   0.000935   0.050559   0.020550  -0.009648  -0.000809
     30       0.002192   0.003164  -0.006514  -0.002012   0.003646  -0.000727
     31      -0.051454  -0.002644  -0.363803  -0.145437   0.063942   0.003864
     32      -0.105752  -0.013707  -0.820868  -0.333516   0.156829   0.012886
     33       0.036244  -0.022253   0.041855   0.019594  -0.069408   0.010444
     34       0.038612  -0.029664   0.070414   0.030616  -0.095046   0.013583
     35       0.002172  -0.003538   0.026248   0.009001  -0.000445   0.000081
     36       0.001446   0.003377   0.005899  -0.004840   0.029016  -0.000345
     37      -0.001026   0.002433  -0.008436  -0.000689  -0.039802  -0.001204
     38      -0.000639   0.000511   0.000604  -0.001102   0.006389  -0.000055
     39      -0.027779  -0.022476  -0.158064   0.055312  -0.768418  -0.007604
     40       0.007814   0.007493   0.041795  -0.017714   0.197853   0.000329
     41      -0.007386  -0.006093  -0.035574   0.012634  -0.159043  -0.001572
     42       0.007560  -0.027661   0.067926   0.017363   0.310266   0.013319
     43       0.007268  -0.043464   0.095759   0.029664   0.434355   0.018138
     44       0.004693   0.000072   0.009204   0.001173   0.050367   0.001695
     45       0.003822  -0.049663   0.000082  -0.001201  -0.000863  -0.003979
     46      -0.002084   0.033272  -0.000509   0.000759  -0.000381   0.003837
     47      -0.000185  -0.001021   0.000439   0.000238   0.000137  -0.000275
     48      -0.058241   0.864012  -0.006238   0.021120   0.005913   0.089875
     49       0.033399  -0.462544   0.003938  -0.010571  -0.002077  -0.041443
     50       0.000511   0.004065  -0.001923  -0.001636   0.000284   0.000746
     51       0.005277  -0.100025   0.003468  -0.002101   0.005965  -0.022828
     52       0.004376  -0.071160   0.002885  -0.001333   0.006591  -0.018331
     53      -0.001124   0.011551   0.000173   0.000380  -0.000722   0.002878
                 48         49         50         51         52         53    
      0       0.001544   0.000302   0.001493  -0.032308  -0.017375   0.008693
      1      -0.001057  -0.000414  -0.000382  -0.011209  -0.005857   0.003285
      2       0.000859   0.000407  -0.001171   0.041133   0.021893  -0.011914
      3      -0.034479  -0.010503  -0.017533   0.041217   0.025046  -0.002867
      4       0.012776   0.003731   0.008790  -0.030788  -0.017938   0.005543
      5      -0.001950   0.000171  -0.001034   0.027121   0.014659  -0.007762
      6       0.007620   0.005157  -0.010234   0.468693   0.249801  -0.134913
      7       0.002689   0.002348  -0.006399   0.209097   0.111655  -0.059752
      8      -0.010185  -0.006871   0.016752  -0.679471  -0.362419   0.193915
      9      -0.000280   0.000007   0.000945   0.008924   0.007506   0.044139
     10      -0.000092  -0.000230   0.000890   0.004310   0.003655   0.020949
     11       0.002305  -0.001981  -0.004728   0.006648   0.005969   0.038787
     12       0.003648  -0.003785  -0.007615   0.006894   0.006436   0.047477
     13       0.004288  -0.002637  -0.007808   0.003860   0.003531   0.033099
     14      -0.037497   0.028998   0.083179  -0.013281  -0.016131  -0.149018
     15      -0.001523   0.006500  -0.006829  -0.148900  -0.125764  -0.747339
     16      -0.000284   0.002729  -0.002639  -0.072788  -0.061423  -0.365051
     17       0.001067   0.002268  -0.007883  -0.092492  -0.078200  -0.464169
     18      -0.001304   0.000553  -0.014705  -0.000225   0.000881  -0.000752
     19      -0.001117   0.000213  -0.011361   0.000014   0.000838  -0.000826
     20      -0.005171   0.009160  -0.063110  -0.001690  -0.000611   0.000767
     21      -0.011781   0.033079  -0.154419  -0.006422  -0.007770   0.009027
     22      -0.013263   0.040299  -0.186675  -0.007351  -0.010327   0.011418
     23       0.018292  -0.059185   0.266450   0.012616   0.018056  -0.018471
     24       0.032569  -0.044977   0.389647   0.008165  -0.003150   0.003394
     25       0.030101  -0.041267   0.368571   0.007859  -0.003530   0.001843
     26       0.063559  -0.086157   0.739173   0.014873  -0.008259   0.006223
     27      -0.028252  -0.021447  -0.000481   0.000109   0.000995  -0.000372
     28      -0.040341  -0.031053  -0.001159  -0.000266   0.001217  -0.000211
     29      -0.002275  -0.003370  -0.000785  -0.000460  -0.000174   0.000302
     30      -0.016425  -0.011461  -0.000278   0.000216   0.000887   0.000010
     31       0.006393   0.015799   0.005131   0.002657   0.001786  -0.001848
     32       0.064175   0.078009   0.013744   0.007044   0.001854  -0.004382
     33       0.468427   0.353334   0.008871   0.001169  -0.015406   0.004365
     34       0.634413   0.478753   0.013025   0.001021  -0.021486   0.005978
     35      -0.029120  -0.025689  -0.000997   0.000044   0.000371  -0.000293
     36       0.038156  -0.044818  -0.009835  -0.000823   0.000377  -0.001235
     37       0.017176  -0.029068  -0.003513  -0.000514   0.001045  -0.000017
     38       0.007644  -0.008090  -0.001979  -0.000186   0.000019  -0.000180
     39      -0.362830   0.343401   0.103768   0.006796   0.004386   0.017263
     40       0.115549  -0.116901  -0.032506  -0.001968  -0.000730  -0.003823
     41      -0.076521   0.072348   0.021813   0.001564   0.000867   0.003337
     42      -0.239776   0.366350   0.053807   0.006375  -0.010570   0.002288
     43      -0.386156   0.579652   0.087551   0.010223  -0.016318   0.004755
     44      -0.036870   0.056304   0.009065   0.000902  -0.000929   0.000121
     45      -0.000508  -0.004876  -0.000026   0.024101  -0.043971   0.002545
     46      -0.000651   0.000804  -0.000994   0.018330  -0.033150   0.001923
     47      -0.000478   0.000212   0.000062  -0.003000   0.005431  -0.000303
     48      -0.000811   0.065177  -0.012049  -0.035597   0.068343  -0.003805
     49       0.001089  -0.030928   0.004396   0.035200  -0.066049   0.003889
     50       0.001299  -0.000082  -0.000676  -0.001866   0.003403  -0.000509
     51       0.006862   0.013191   0.011715  -0.345074   0.626535  -0.036395
     52       0.006360   0.016747   0.010768  -0.326300   0.592721  -0.034482
     53      -0.002024  -0.001992  -0.001390   0.049252  -0.089532   0.005192


-----------
IR SPECTRUM  
-----------

 Mode    freq (cm**-1)   T**2         TX         TY         TZ
-------------------------------------------------------------------
   6:        60.88    2.511078  ( -0.441926   0.048271  -1.521003)
   7:        72.66    0.200288  (  0.174119  -0.172910  -0.374262)
   8:        78.06    1.220138  ( -0.229882  -0.049015   1.079300)
   9:        92.25    0.442674  (  0.351237  -0.101758   0.555835)
  10:        96.44    0.752919  ( -0.743153  -0.299729   0.332875)
  11:       148.28    1.100342  (  0.918125  -0.448019  -0.238048)
  12:       173.16   11.440122  ( -2.226339  -1.003555  -2.340174)
  13:       182.41    2.252913  (  1.372548   0.223536   0.564851)
  14:       210.11   22.580787  ( -3.178353   2.966332  -1.918263)
  15:       217.03    9.763965  (  2.563693  -1.674107   0.623547)
  16:       240.68   39.242538  ( -3.276794  -0.175864   5.336125)
  17:       249.60   35.522809  ( -3.366164   4.883518   0.585658)
  18:       264.11   51.386618  ( -0.463562  -1.860615  -6.907231)
  19:       281.66   48.817349  (  2.150647   6.636169  -0.391580)
  20:       292.85   22.008140  ( -4.201166   2.087568   0.020047)
  21:       368.01   59.262076  ( -5.792454   4.776529  -1.701271)
  22:       381.14    6.157129  (  0.172742   2.352579   0.769844)
  23:       432.17   47.575313  ( -2.470559   3.354477   5.497194)
  24:       443.99   39.888083  ( -4.506487   2.143173  -3.871236)
  25:       471.73   41.876772  ( -1.886321   1.439177  -6.020576)
  26:       504.40   24.393030  (  4.056263  -1.334057  -2.481945)
  27:       544.48  222.362519  ( 14.353409   3.810567   1.349726)
  28:       559.84   22.527977  (  0.032484  -4.546514  -1.362399)
  29:       627.68  286.098312  ( -1.130802  -2.995676 -16.608598)
  30:       649.14  167.061355  ( -2.771892   5.051694  11.569717)
  31:       688.66  183.939791  (  7.903953 -10.983796  -0.907484)
  32:       729.27  265.009086  ( -9.672548  12.201139  -4.752169)
  33:       843.43   37.020350  (  4.627282  -3.609460   1.606365)
  34:       888.64   57.109937  ( -3.037243   2.114115   6.589052)
  35:      1026.22   67.477527  ( -3.112197  -6.137268  -4.486168)
  36:      1653.84  167.447912  (  8.218438   9.985886   0.432746)
  37:      1666.74   66.899766  (  2.224171  -7.313546   2.909446)
  38:      1672.64   70.040265  ( -3.069587  -1.371526   7.663995)
  39:      1695.36   16.870807  (  3.511895  -2.090156   0.410665)
  40:      1709.43  117.496328  (  3.218721   9.240789  -4.663044)
  41:      1727.94   54.714138  (  3.042758   1.167578  -6.640220)
  42:      3227.53  875.302961  ( 27.890697  -9.762231  -1.452871)
  43:      3462.06  758.309115  ( 26.335669  -8.000895  -0.852851)
  44:      3571.48  152.304734  ( -5.603744   0.036892 -10.995519)
  45:      3592.60  604.563859  (  1.965742  -2.241508 -24.406461)
  46:      3708.29  176.153774  (-10.214895   8.127639   2.398160)
  47:      3730.42  216.806420  ( -5.752182 -10.270739   8.844814)
  48:      3778.95   60.533878  ( -5.387454   5.156025  -2.219149)
  49:      3793.79  477.168789  ( 17.592125  12.750867   2.258606)
  50:      3824.36  229.201169  (  4.784202   2.943266  14.058797)
  51:      3909.45   33.872951  (  0.877446  -1.314772  -5.601287)
  52:      3909.84  116.096054  (  9.683090   1.871914  -4.339328)
  53:      3912.15   99.261032  ( -6.850999  -2.412378  -6.819478)

The first frequency considered to be a vibration is 6
The total number of vibrations considered is 48


--------------------------
THERMOCHEMISTRY AT 298.15K
--------------------------

Temperature         ... 298.15 K
Pressure            ... 1.00 atm
Total Mass          ... 108.09 AMU

Throughout the following assumptions are being made:
  (1) The electronic state is orbitally nondegenerate
  (2) There are no thermally accessible electronically excited states
  (3) Hindered rotations indicated by low frequency modes are not
      treated as such but are treated as vibrations and this may
      cause some error
  (4) All equations used are the standard statistical mechanics
      equations for an ideal gas
  (5) All vibrations are strictly harmonic

freq.      60.88  E(vib)   ...       0.51 
freq.      72.66  E(vib)   ...       0.49 
freq.      78.06  E(vib)   ...       0.49 
freq.      92.25  E(vib)   ...       0.47 
freq.      96.44  E(vib)   ...       0.47 
freq.     148.28  E(vib)   ...       0.41 
freq.     173.16  E(vib)   ...       0.38 
freq.     182.41  E(vib)   ...       0.37 
freq.     210.11  E(vib)   ...       0.34 
freq.     217.03  E(vib)   ...       0.34 
freq.     240.68  E(vib)   ...       0.31 
freq.     249.60  E(vib)   ...       0.31 
freq.     264.11  E(vib)   ...       0.29 
freq.     281.66  E(vib)   ...       0.28 
freq.     292.85  E(vib)   ...       0.27 
freq.     368.01  E(vib)   ...       0.21 
freq.     381.14  E(vib)   ...       0.21 
freq.     432.17  E(vib)   ...       0.18 
freq.     443.99  E(vib)   ...       0.17 
freq.     471.73  E(vib)   ...       0.15 
freq.     504.40  E(vib)   ...       0.14 
freq.     544.48  E(vib)   ...       0.12 
freq.     559.84  E(vib)   ...       0.12 
freq.     627.68  E(vib)   ...       0.09 
freq.     649.14  E(vib)   ...       0.08 
freq.     688.66  E(vib)   ...       0.07 
freq.     729.27  E(vib)   ...       0.06 
freq.     843.43  E(vib)   ...       0.04 
freq.     888.64  E(vib)   ...       0.04 
freq.    1026.22  E(vib)   ...       0.02 
freq.    1653.84  E(vib)   ...       0.00 
freq.    1666.74  E(vib)   ...       0.00 
freq.    1672.64  E(vib)   ...       0.00 
freq.    1695.36  E(vib)   ...       0.00 
freq.    1709.43  E(vib)   ...       0.00 
freq.    1727.94  E(vib)   ...       0.00 
freq.    3227.53  E(vib)   ...       0.00 
freq.    3462.06  E(vib)   ...       0.00 
freq.    3571.48  E(vib)   ...       0.00 
freq.    3592.60  E(vib)   ...       0.00 
freq.    3708.29  E(vib)   ...       0.00 
freq.    3730.42  E(vib)   ...       0.00 
freq.    3778.95  E(vib)   ...       0.00 
freq.    3793.79  E(vib)   ...       0.00 
freq.    3824.36  E(vib)   ...       0.00 
freq.    3909.45  E(vib)   ...       0.00 
freq.    3909.84  E(vib)   ...       0.00 
freq.    3912.15  E(vib)   ...       0.00 

------------
INNER ENERGY
------------

The inner energy is: U= E(el) + E(ZPE) + E(vib) + E(rot) + E(trans)
    E(el)   - is the total energy from the electronic structure calculation
              = E(kin-el) + E(nuc-el) + E(el-el) + E(nuc-nuc)
    E(ZPE)  - the the zero temperature vibrational energy from the frequency calculation
    E(vib)  - the the finite temperature correction to E(ZPE) due to population
              of excited vibrational states
    E(rot)  - is the rotational thermal energy
    E(trans)- is the translational thermal energy

Summary of contributions to the inner energy U:
Electronic energy                ...   -458.42202053 Eh
Zero point energy                ...      0.15119252 Eh      94.87 kcal/mol
Thermal vibrational correction   ...      0.01184538 Eh       7.43 kcal/mol
Thermal rotational correction    ...      0.00141627 Eh       0.89 kcal/mol
Thermal translational correction ...      0.00141627 Eh       0.89 kcal/mol
-----------------------------------------------------------------------
Total thermal energy                   -458.25615009 Eh


Summary of corrections to the electronic energy:
(perhaps to be used in another calculation)
Total thermal correction                  0.01467793 Eh       9.21 kcal/mol
Non-thermal (ZPE) correction              0.15119252 Eh      94.87 kcal/mol
-----------------------------------------------------------------------
Total correction                          0.16587044 Eh     104.09 kcal/mol


--------
ENTHALPY
--------

The enthalpy is H = U + kB*T
                kB is Boltzmann's constant
Total free energy                 ...   -458.25615009 Eh 
Thermal Enthalpy correction       ...      0.00094421 Eh       0.59 kcal/mol
-----------------------------------------------------------------------
Total Enthalpy                    ...   -458.25520588 Eh


Note: Only C1 symmetry has been detected, increase convergence thresholds 
      if your molecule has a higher symmetry. Symmetry factor of 1.0 is   
      used for the rotational entropy correction. 
 

Note: Rotational entropy computed according to Herzberg 
Infrared and Raman Spectra, Chapter V,1, Van Nostrand Reinhold, 1945 
Point Group:  C1, Symmetry Number:   1  
Rotational constants in cm-1:     0.057535     0.047549     0.045973 

Vibrational entropy computed according to the QRRHO of S. Grimme
Chem.Eur.J. 2012 18 9955


-------
ENTROPY
-------

The entropy contributions are T*S = T*(S(el)+S(vib)+S(rot)+S(trans))
     S(el)   - electronic entropy
     S(vib)  - vibrational entropy
     S(rot)  - rotational entropy
     S(trans)- translational entropy
The entropies will be listed as mutliplied by the temperature to get
units of energy

Electronic entropy                ...      0.00000000 Eh      0.00 kcal/mol
Vibrational entropy               ...      0.02100223 Eh     13.18 kcal/mol
Rotational entropy                ...      0.01375069 Eh      8.63 kcal/mol
Translational entropy             ...      0.01898142 Eh     11.91 kcal/mol
-----------------------------------------------------------------------
Final entropy term                ...      0.05373434 Eh     33.72 kcal/mol

In case the symmetry of your molecule has not been determined correctly
or in case you have a reason to use a different symmetry number we print 
out the resulting rotational entropy values for sn=1,12 :
 --------------------------------------------------------
|  sn= 1 | S(rot)=       0.01375069 Eh      8.63 kcal/mol|
|  sn= 2 | S(rot)=       0.01309623 Eh      8.22 kcal/mol|
|  sn= 3 | S(rot)=       0.01271340 Eh      7.98 kcal/mol|
|  sn= 4 | S(rot)=       0.01244177 Eh      7.81 kcal/mol|
|  sn= 5 | S(rot)=       0.01223109 Eh      7.68 kcal/mol|
|  sn= 6 | S(rot)=       0.01205894 Eh      7.57 kcal/mol|
|  sn= 7 | S(rot)=       0.01191340 Eh      7.48 kcal/mol|
|  sn= 8 | S(rot)=       0.01178732 Eh      7.40 kcal/mol|
|  sn= 9 | S(rot)=       0.01167611 Eh      7.33 kcal/mol|
|  sn=10 | S(rot)=       0.01157663 Eh      7.26 kcal/mol|
|  sn=11 | S(rot)=       0.01148664 Eh      7.21 kcal/mol|
|  sn=12 | S(rot)=       0.01140449 Eh      7.16 kcal/mol|
 --------------------------------------------------------


-------------------
GIBBS FREE ENERGY
-------------------

The Gibbs free energy is G = H - T*S

Total enthalpy                    ...   -458.25520588 Eh 
Total entropy correction          ...     -0.05373434 Eh    -33.72 kcal/mol
-----------------------------------------------------------------------
Final Gibbs free energy         ...   -458.30894021 Eh

For completeness - the Gibbs free energy minus the electronic energy
G-E(el)                           ...      0.11308032 Eh     70.96 kcal/mol


Total Time for Numerical Frequencies  :     16076.063 sec

Timings for individual modules:

Sum of individual times         ...      759.901 sec (=  12.665 min)
GTO integral calculation        ...        4.548 sec (=   0.076 min)   0.6 %
SCF iterations                  ...       35.725 sec (=   0.595 min)   4.7 %
MP2 module                      ...      718.693 sec (=  11.978 min)  94.6 %
Geometry relaxation             ...        0.934 sec (=   0.016 min)   0.1 %
                             ****ORCA TERMINATED NORMALLY****
TOTAL RUN TIME: 0 days 4 hours 38 minutes 10 seconds 352 msec
