
                                 *****************
                                 * O   R   C   A *
                                 *****************

           --- An Ab Initio, DFT and Semiempirical electronic structure package ---

                  #######################################################
                  #                        -***-                        #
                  #          Department of theory and spectroscopy      #
                  #               Directorship: Frank Neese             #
                  #        Max Planck Institute fuer Kohlenforschung    #
                  #                Kaiser Wilhelm Platz 1               #
                  #                 D-45470 Muelheim/Ruhr               #
                  #                      Germany                        #
                  #                                                     #
                  #                  All rights reserved                #
                  #                        -***-                        #
                  #######################################################


                         Program Version 4.2.0 -  RELEASE  -


 With contributions from (in alphabetic order):
   Daniel Aravena         : Magnetic Suceptibility
   Michael Atanasov       : Ab Initio Ligand Field Theory (pilot matlab implementation)
   Alexander A. Auer      : GIAO ZORA, VPT2
   Ute Becker             : Parallelization
   Giovanni Bistoni       : ED, misc. LED, open-shell LED, HFLED
   Martin Brehm           : Molecular dynamics
   Dmytro Bykov           : SCF Hessian
   Vijay G. Chilkuri      : MRCI spin determinant printing, contributions to CSF-ICE
   Dipayan Datta          : RHF DLPNO-CCSD density
   Achintya Kumar Dutta   : EOM-CC, STEOM-CC
   Dmitry Ganyushin       : Spin-Orbit,Spin-Spin,Magnetic field MRCI
   Miquel Garcia          : C-PCM Hessian, Gaussian charge scheme
   Yang Guo               : DLPNO-NEVPT2, CIM, IAO-localization
   Andreas Hansen         : Spin unrestricted coupled pair/coupled cluster methods
   Benjamin Helmich-Paris : CASSCF linear response (MC-RPA)
   Lee Huntington         : MR-EOM, pCC
   Robert Izsak           : Overlap fitted RIJCOSX, COSX-SCS-MP3, EOM
   Christian Kollmar      : KDIIS, OOCD, Brueckner-CCSD(T), CCSD density
   Simone Kossmann        : Meta GGA functionals, TD-DFT gradient, OOMP2, MP2 Hessian
   Martin Krupicka        : AUTO-CI
   Lucas Lang             : DCDCAS
   Dagmar Lenk            : GEPOL surface, SMD
   Dimitrios Liakos       : Extrapolation schemes; Compound Job, initial MDCI parallelization
   Dimitrios Manganas     : Further ROCIS development; embedding schemes
   Dimitrios Pantazis     : SARC Basis sets
   Taras Petrenko         : DFT Hessian,TD-DFT gradient, ASA, ECA, R-Raman, ABS, FL, XAS/XES, NRVS
   Peter Pinski           : DLPNO-MP2, DLPNO-MP2 Gradient
   Christoph Reimann      : Effective Core Potentials
   Marius Retegan         : Local ZFS, SOC
   Christoph Riplinger    : Optimizer, TS searches, QM/MM, DLPNO-CCSD(T), (RO)-DLPNO pert. Triples
   Tobias Risthaus        : Range-separated hybrids, TD-DFT gradient, RPA, STAB
   Michael Roemelt        : Original ROCIS implementation
   Masaaki Saitow         : Open-shell DLPNO-CCSD energy and density
   Barbara Sandhoefer     : DKH picture change effects
   Avijit Sen             : IP-ROCIS
   Kantharuban Sivalingam : CASSCF convergence, NEVPT2, FIC-MRCI
   Bernardo de Souza      : ESD, SOC TD-DFT
   Georgi Stoychev        : AutoAux, RI-MP2 NMR
   Willem Van den Heuvel  : Paramagnetic NMR
   Boris Wezisla          : Elementary symmetry handling
   Frank Wennmohs         : Technical directorship


 We gratefully acknowledge several colleagues who have allowed us to
 interface, adapt or use parts of their codes:
   Stefan Grimme, W. Hujo, H. Kruse,             : VdW corrections, initial TS optimization,
                  C. Bannwarth                     DFT functionals, gCP, sTDA/sTD-DF
   Ed Valeev, F. Pavosevic, A. Kumar             : LibInt (2-el integral package), F12 methods
   Garnet Chan, S. Sharma, J. Yang, R. Olivares  : DMRG
   Ulf Ekstrom                                   : XCFun DFT Library
   Mihaly Kallay                                 : mrcc  (arbitrary order and MRCC methods)
   Andreas Klamt, Michael Diedenhofen            : otool_cosmo (COSMO solvation model)
   Jiri Pittner, Ondrej Demel                    : Mk-CCSD
   Frank Weinhold                                : gennbo (NPA and NBO analysis)
   Christopher J. Cramer and Donald G. Truhlar   : smd solvation model
   Lars Goerigk                                  : TD-DFT with DH, B97 family of functionals
   V. Asgeirsson, H. Jonsson                     : NEB implementation
   FAccTs GmbH                                   : IRC, NEB, NEB-TS, Multilevel, MM, QM/MM, CI optimization
   S Lehtola, MJT Oliveira, MAL Marques          : LibXC Library


 Your calculation uses the libint2 library for the computation of 2-el integrals
 For citations please refer to: http://libint.valeyev.net

 Your ORCA version has been built with support for libXC version: 4.2.3
 For citations please refer to: https://tddft.org/programs/libxc/

 This ORCA versions uses:
   CBLAS   interface :  Fast vector & matrix operations
   LAPACKE interface :  Fast linear algebra routines
   SCALAPACK package :  Parallel linear algebra routines


Your calculation utilizes the atom-pairwise dispersion correction
with the Becke-Johnson damping scheme (D3BJ)
Cite in your paper:
S.Grimme, S.Ehrlich, L.Goerigk, J Comput Chem, (2011), 32, 1456–1465 
S.Grimme, J.Antony, S.Ehrlich and H.Krieg, J.Chem.Phys., 132, (2010), 154104 
   

----- Orbital basis set information -----
Your calculation utilizes the basis: aug-cc-pV(T+d)Z 
             Al - Ar: T.H. Dunning, Jr., K. A. Peterson and A. K. Wilson, J. Chem. Phys.
                      114, 9244 (2001)

----- AuxC basis set information -----
Your calculation utilizes the auxiliary basis: def2-TZVP/C
  H-La, Hf-Rn : A. Hellweg, C. Hattig, S. Hofener and W. Klopper, Theor. Chem. Acc. 117, 587 (2007).
        Ce-Lu : J. Chmela and M. E. Harding, Mol. Phys. (2018).

----- AuxJK basis set information -----
Your calculation utilizes the auxiliary basis: def2/JK
   H-Ba, Hf-Rn: F. Weigend, J. Comput. Chem. 29, 167 (2008).

================================================================================
                                        WARNINGS
                       Please study these warnings very carefully!
================================================================================


WARNING: The frozen-core approximation for MP2-gradient calculations is turned on by default.

WARNING: Geometry Optimization
  ===> : Switching off AutoStart
         For restart on a previous wavefunction, please use MOREAD

WARNING: The frozen-core approximation is turned on by default for 
         the MP2 part of double-hybrid DFT.

INFO   : the flag for use of LIBINT has been found!

================================================================================
                                       INPUT FILE
================================================================================
NAME = 01_H2O.in
|  1> #
|  2> # 01_H2O b2-plyp/aug-cc-pvt(+d)z
|  3> #
|  4> ! rijk ri-b2plyp d3bj aug-cc-pvt(+d)z def2/jk def2-tzvp/c grid4 nofinalgrid opt xyzfile numfreq
|  5> 
|  6> *xyz 0 1
|  7> O	0	0	0.12434822
|  8> H	0	-1.43139324	-0.98674827
|  9> H	0	1.43139324	-0.98674827
| 10> *
| 11> 
| 12> %maxcore 5000
| 13> 
| 14> %pal
| 15> nprocs 24
| 16> end
| 17> 
| 18> 
| 19>                          ****END OF INPUT****
================================================================================

                       *****************************
                       * Geometry Optimization Run *
                       *****************************

Geometry optimization settings:
Update method            Update   .... BFGS
Choice of coordinates    CoordSys .... Z-matrix Internals
Initial Hessian          InHess   .... Almoef's Model

Convergence Tolerances:
Energy Change            TolE     ....  5.0000e-06 Eh
Max. Gradient            TolMAXG  ....  3.0000e-04 Eh/bohr
RMS Gradient             TolRMSG  ....  1.0000e-04 Eh/bohr
Max. Displacement        TolMAXD  ....  4.0000e-03 bohr
RMS Displacement         TolRMSD  ....  2.0000e-03 bohr
Strict Convergence                ....  False
------------------------------------------------------------------------------
                        ORCA OPTIMIZATION COORDINATE SETUP
------------------------------------------------------------------------------

The optimization will be done in new redundant internal coordinates
Making redundant internal coordinates   ...  (new redundants) done
Evaluating the initial hessian          ...  (Almloef) done
Evaluating the coordinates              ...  done
Calculating the B-matrix                .... done
Calculating the G-matrix                .... done
Diagonalizing the G-matrix              .... done
The first mode is                       ....    0
The number of degrees of freedom        ....    3

    -----------------------------------------------------------------
                    Redundant Internal Coordinates


    -----------------------------------------------------------------
         Definition                    Initial Value    Approx d2E/dq
    -----------------------------------------------------------------
      1. B(H   1,O   0)                  1.8120         0.022731   
      2. B(H   2,O   0)                  1.8120         0.022731   
      3. A(H   1,O   0,H   2)          104.3603         0.145455   
    -----------------------------------------------------------------

Number of atoms                         .... 3
Number of degrees of freedom            .... 3

         *************************************************************
         *                GEOMETRY OPTIMIZATION CYCLE   1            *
         *************************************************************
---------------------------------
CARTESIAN COORDINATES (ANGSTROEM)
---------------------------------
  O      0.000000    0.000000    0.124348
  H      0.000000   -1.431393   -0.986748
  H      0.000000    1.431393   -0.986748

----------------------------
CARTESIAN COORDINATES (A.U.)
----------------------------
  NO LB      ZA    FRAG     MASS         X           Y           Z
   0 O     8.0000    0    15.999    0.000000    0.000000    0.234984
   1 H     1.0000    0     1.008    0.000000   -2.704941   -1.864684
   2 H     1.0000    0     1.008    0.000000    2.704941   -1.864684

--------------------------------
INTERNAL COORDINATES (ANGSTROEM)
--------------------------------
 O      0   0   0     0.000000000000     0.00000000     0.00000000
 H      1   0   0     1.812021527910     0.00000000     0.00000000
 H      1   2   0     1.812021527910   104.36032046     0.00000000

---------------------------
INTERNAL COORDINATES (A.U.)
---------------------------
 O      0   0   0     0.000000000000     0.00000000     0.00000000
 H      1   0   0     3.424224436519     0.00000000     0.00000000
 H      1   2   0     3.424224436519   104.36032046     0.00000000

---------------------
BASIS SET INFORMATION
---------------------
There are 2 groups of distinct atoms

 Group   1 Type O   : 19s6p3d2f contracted to 5s4p3d2f pattern {88111/3111/111/11}
 Group   2 Type H   : 6s3p2d contracted to 4s3p2d pattern {3111/111/11}

Atom   0O    basis set group =>   1
Atom   1H    basis set group =>   2
Atom   2H    basis set group =>   2
---------------------------------
AUXILIARY/C BASIS SET INFORMATION
---------------------------------
There are 2 groups of distinct atoms

 Group   1 Type O   : 8s6p5d3f1g contracted to 8s6p4d3f1g pattern {11111111/111111/2111/111/1}
 Group   2 Type H   : 4s3p2d contracted to 4s2p1d pattern {1111/21/2}

Atom   0O    basis set group =>   1
Atom   1H    basis set group =>   2
Atom   2H    basis set group =>   2
----------------------------------
AUXILIARY/JK BASIS SET INFORMATION
----------------------------------
There are 2 groups of distinct atoms

 Group   1 Type O   : 14s10p6d2f1g contracted to 10s8p4d2f1g pattern {5111111111/31111111/3111/11/1}
 Group   2 Type H   : 4s2p2d contracted to 2s2p2d pattern {31/11/11}

Atom   0O    basis set group =>   1
Atom   1H    basis set group =>   2
Atom   2H    basis set group =>   2


           ************************************************************
           *        Program running with 24 parallel MPI-processes    *
           *              working on a common directory               *
           ************************************************************
------------------------------------------------------------------------------
                           ORCA GTO INTEGRAL CALCULATION
                           -- RI-GTO INTEGRALS CHOSEN --
------------------------------------------------------------------------------

                         BASIS SET STATISTICS AND STARTUP INFO

Gaussian basis set:
 # of primitive gaussian shells          ...   52
 # of primitive gaussian functions       ...  116
 # of contracted shells                  ...   32
 # of contracted basis functions         ...   92
 Highest angular momentum                ...    3
 Maximum contraction depth               ...    8
Auxiliary gaussian basis set:
 # of primitive gaussian shells          ...   49
 # of primitive gaussian functions       ...  137
 # of contracted shells                  ...   37
 # of contracted aux-basis functions     ...  113
 Highest angular momentum                ...    4
 Maximum contraction depth               ...    5
Ratio of auxiliary to basis functions    ...  1.23
Integral package used                  ... LIBINT
 One Electron integrals                  ... done
 Ordering auxiliary basis shells         ... done
 Integral threshhold             Thresh  ...  2.500e-11
 Primitive cut-off               TCut    ...  2.500e-12
 Pre-screening matrix                    ... done
 Shell pair data                         ... 
 Ordering of the shell pairs             ... done (   0.000 sec) 528 of 528 pairs
 Determination of significant pairs      ... done (   0.000 sec)
 Creation of shell pair data             ... done (   0.000 sec)
 Storage of shell pair data              ... done (   0.003 sec)
 Shell pair data done in (   0.003 sec)
 Computing two index integrals           ... done
 Cholesky decomposition of the V-matrix  ... done


Timings:
 Total evaluation time                   ...   0.159 sec (  0.003 min)
 One electron matrix time                ...   0.008 sec (  0.000 min) =  5.3%
 Schwartz matrix evaluation time         ...   0.119 sec (  0.002 min) = 75.1%
 Two index repulsion integral time       ...   0.000 sec (  0.000 min) =  0.2%
 Cholesky decomposition of V             ...   0.001 sec (  0.000 min) =  0.5%
 Three index repulsion integral time     ...   0.000 sec (  0.000 min) =  0.0%



           ************************************************************
           *        Program running with 24 parallel MPI-processes    *
           *              working on a common directory               *
           ************************************************************
-------------------------------------------------------------------------------
                                 ORCA SCF
-------------------------------------------------------------------------------

------------
SCF SETTINGS
------------
Hamiltonian:
 Density Functional     Method          .... DFT(GTOs)
 Exchange Functional    Exchange        .... B88
   X-Alpha parameter    XAlpha          ....  0.666667
   Becke's b parameter  XBeta           ....  0.004200
 Correlation Functional Correlation     .... LYP
 LDA part of GGA corr.  LDAOpt          .... VWN-3
 Gradients option       PostSCFGGA      .... off
 Hybrid DFT is turned on
   Fraction HF Exchange ScalHFX         ....  0.530000
   Scaling of DF-GGA-X  ScalDFX         ....  0.470000
   Scaling of DF-GGA-C  ScalDFC         ....  0.730000
   Scaling of DF-LDA-C  ScalLDAC        ....  0.730000
   Perturbative correction              ....  0.270000
   Density functional embedding theory  .... OFF
 RI-approximation to the Coulomb term is turned on
   Number of auxiliary basis functions  .... 113
   RI-JK (J+K treated both via RI)      .... on


General Settings:
 Integral files         IntName         .... 01_H2O
 Hartree-Fock type      HFTyp           .... RHF
 Total Charge           Charge          ....    0
 Multiplicity           Mult            ....    1
 Number of Electrons    NEL             ....   10
 Basis Dimension        Dim             ....   92
 Nuclear Repulsion      ENuc            ....      4.8574378178 Eh

Convergence Acceleration:
 DIIS                   CNVDIIS         .... on
   Start iteration      DIISMaxIt       ....    12
   Startup error        DIISStart       ....  0.200000
   # of expansion vecs  DIISMaxEq       ....     5
   Bias factor          DIISBfac        ....   1.050
   Max. coefficient     DIISMaxC        ....  10.000
 Newton-Raphson         CNVNR           .... off
 SOSCF                  CNVSOSCF        .... on
   Start iteration      SOSCFMaxIt      ....   150
   Startup grad/error   SOSCFStart      ....  0.003300
 Level Shifting         CNVShift        .... on
   Level shift para.    LevelShift      ....    0.2500
   Turn off err/grad.   ShiftErr        ....    0.0010
 Zerner damping         CNVZerner       .... off
 Static damping         CNVDamp         .... on
   Fraction old density DampFac         ....    0.7000
   Max. Damping (<1)    DampMax         ....    0.9800
   Min. Damping (>=0)   DampMin         ....    0.0000
   Turn off err/grad.   DampErr         ....    0.1000
 Fernandez-Rico         CNVRico         .... off

SCF Procedure:
 Maximum # iterations   MaxIter         ....   125
 SCF integral mode      SCFMode         .... Direct
   Integral package                     .... LIBINT
 Reset frequency        DirectResetFreq ....    20
 Integral Threshold     Thresh          ....  2.500e-11 Eh
 Primitive CutOff       TCut            ....  2.500e-12 Eh

Convergence Tolerance:
 Convergence Check Mode ConvCheckMode   .... Total+1el-Energy
 Convergence forced     ConvForced      .... 0
 Energy Change          TolE            ....  1.000e-08 Eh
 1-El. energy change                    ....  1.000e-05 Eh
 Orbital Gradient       TolG            ....  1.000e-05
 Orbital Rotation angle TolX            ....  1.000e-05
 DIIS Error             TolErr          ....  5.000e-07


Diagonalization of the overlap matrix:
Smallest eigenvalue                        ... 2.610e-03
Time for diagonalization                   ...    0.019 sec
Threshold for overlap eigenvalues          ... 1.000e-08
Number of eigenvalues below threshold      ... 0
Time for construction of square roots      ...    0.002 sec
Total time needed                          ...    0.021 sec

-------------------
DFT GRID GENERATION
-------------------

General Integration Accuracy     IntAcc      ...  4.670
Radial Grid Type                 RadialGrid  ... Gauss-Chebyshev
Angular Grid (max. acc.)         AngularGrid ... Lebedev-302
Angular grid pruning method      GridPruning ... 3 (G Style)
Weight generation scheme         WeightScheme... Becke
Basis function cutoff            BFCut       ...    1.0000e-11
Integration weight cutoff        WCut        ...    1.0000e-14
Grids for H and He will be reduced by one unit

# of grid points (after initial pruning)     ...  13000 (   0.0 sec)
# of grid points (after weights+screening)   ...  12960 (   0.0 sec)
nearest neighbour list constructed           ...    0.0 sec
Grid point re-assignment to atoms done       ...    0.0 sec
Grid point division into batches done        ...    0.1 sec
Reduced shell lists constructed in    0.1 sec

Total number of grid points                  ...    12960
Total number of batches                      ...      204
Average number of points per batch           ...       63
Average number of grid points per atom       ...     4320
Average number of shells per batch           ...    14.90 (46.56%)
Average number of basis functions per batch  ...    39.50 (42.93%)
Average number of large shells per batch     ...    10.80 (72.48%)
Average number of large basis fcns per batch ...    27.00 (68.35%)
Average number of aux-shells per batch       ...    14.90 (40.27%)
Average number of aux functions per batch    ...    39.50 (34.96%)
Maximum spatial batch extension              ...  13.24, 16.88, 11.34 au
Average spatial batch extension              ...   0.48,  0.49,  0.43 au

Time for grid setup =    0.082 sec

------------------------------
INITIAL GUESS: MODEL POTENTIAL
------------------------------
Loading Hartree-Fock densities                     ... done
Calculating cut-offs                               ... done
Setting up the integral package                    ... done
Initializing the effective Hamiltonian             ... done
Starting the Coulomb interaction                   ... done (   0.0 sec)
Reading the grid                                   ... done
Mapping shells                                     ... done
Starting the XC term evaluation                    ... done (   0.0 sec)
  promolecular density results
     # of electrons  =      9.999018782
     EX              =     -8.600879002
     EC              =     -0.089977708
     EX+EC           =     -8.690856710
Transforming the Hamiltonian                       ... done (   0.0 sec)
Diagonalizing the Hamiltonian                      ... done (   0.0 sec)
Back transforming the eigenvectors                 ... done (   0.0 sec)
Now organizing SCF variables                       ... done
                      ------------------
                      INITIAL GUESS DONE (   0.2 sec)
                      ------------------
--------------
SCF ITERATIONS
--------------
ITER       Energy         Delta-E        Max-DP      RMS-DP      [F,P]     Damp
  0    -75.7424628814   0.000000000000 0.06492543  0.00253009  0.4683294 0.7000
  1    -75.6275077388   0.114955142603 0.06174527  0.00235768  0.2736089 0.7000
                               ***Turning on DIIS***
  2    -75.6742054573  -0.046697718460 0.03125842  0.00126625  0.1472606 0.7000
  3    -75.7962947948  -0.122089337541 0.02151073  0.00074101  0.2894518 0.7000
  4    -75.8407597767  -0.044464981892 0.01414410  0.00042695  0.2864397 0.7000
  5    -75.8714787382  -0.030718961493 0.00677047  0.00027904  0.2473550 0.7000
  6    -75.8942183482  -0.022739609957 0.00729296  0.00024985  0.2087501 0.7000
  7    -75.9119537706  -0.017735422488 0.01953573  0.00072435  0.1816643 0.7000
  8    -75.9824351483  -0.070481377658 0.02797461  0.00098166  0.1401146 0.7000
  9    -76.0058691656  -0.023434017268 0.07093809  0.00260911  0.0884890 0.0000
 10    -75.9391628452   0.066706320359 0.00699545  0.00025393  0.1275664 0.7000
 11    -75.9352771308   0.003885714378 0.00808301  0.00030113  0.1248132 0.7000
 12    -75.9417861161  -0.006508985311 0.00704541  0.00026432  0.1098786 0.7000
 13    -75.9506797554  -0.008893639271 0.01825372  0.00067821  0.0917728 0.0000
 14    -75.9784085965  -0.027728841093 0.00818967  0.00031356  0.0324684 0.0000
 15    -75.9805345034  -0.002125906893 0.00381911  0.00015798  0.0173810 0.0000
 16    -75.9811688777  -0.000634374296 0.00225768  0.00009680  0.0098231 0.0000
 17    -75.9813769372  -0.000208059474 0.00145475  0.00005761  0.0053646 0.0000
                      *** Initiating the SOSCF procedure ***
                           *** Shutting down DIIS ***
                      *** Re-Reading the Fockian *** 
                      *** Removing any level shift *** 
ITER      Energy       Delta-E        Grad      Rot      Max-DP    RMS-DP
 18    -75.98143975  -0.0000628129  0.001206  0.001206  0.000924  0.000033
 19    -75.98145706  -0.0000173083  0.001089  0.004007  0.001811  0.000056
 20    -75.98144010   0.0000169579  0.002307  0.001926  0.000994  0.000035
 21    -75.98146282  -0.0000227155  0.000172  0.000504  0.000236  0.000009
 22    -75.98146332  -0.0000005054  0.000085  0.000802  0.000376  0.000013
 23    -75.98146360  -0.0000002760  0.000021  0.000038  0.000023  0.000001
                 **** Energy Check signals convergence ****
              ***Rediagonalizing the Fockian in SOSCF/NRSCF***

               *****************************************************
               *                     SUCCESS                       *
               *           SCF CONVERGED AFTER  24 CYCLES          *
               *****************************************************


----------------
TOTAL SCF ENERGY
----------------

Total Energy       :          -75.98146360 Eh           -2067.56074 eV

Components:
Nuclear Repulsion  :            4.85743782 Eh             132.17760 eV
Electronic Energy  :          -80.83890142 Eh           -2199.73834 eV
One Electron Energy:         -114.59511877 Eh           -3118.29171 eV
Two Electron Energy:           33.75621735 Eh             918.55337 eV

Virial components:
Potential Energy   :         -151.04052575 Eh           -4110.02166 eV
Kinetic Energy     :           75.05906215 Eh            2042.46092 eV
Virial Ratio       :            2.01228901


DFT components:
N(Alpha)           :        5.000017632673 electrons
N(Beta)            :        5.000017632673 electrons
N(Total)           :       10.000035265346 electrons
E(X)               :       -4.037145026998 Eh       
E(C)               :       -0.232559040974 Eh       
E(XC)              :       -4.269704067972 Eh       
DFET-embed. en.    :        0.000000000000 Eh       

---------------
SCF CONVERGENCE
---------------

  Last Energy change         ...   -4.0944e-09  Tolerance :   1.0000e-08
  Last MAX-Density change    ...    9.7973e-06  Tolerance :   1.0000e-07
  Last RMS-Density change    ...    3.2555e-07  Tolerance :   5.0000e-09
  Last Orbital Gradient      ...    5.7828e-06  Tolerance :   1.0000e-05
  Last Orbital Rotation      ...    1.5412e-05  Tolerance :   1.0000e-05

             **** THE GBW FILE WAS UPDATED (01_H2O.gbw) ****
             **** DENSITY FILE WAS UPDATED (01_H2O.scfp) ****
             **** ENERGY FILE WAS UPDATED (01_H2O.en.tmp) ****
             **** THE GBW FILE WAS UPDATED (01_H2O.gbw) ****
             **** DENSITY FILE WAS UPDATED (01_H2O.scfp) ****
----------------
ORBITAL ENERGIES
----------------

  NO   OCC          E(Eh)            E(eV) 
   0   2.0000     -19.812680      -539.1304 
   1   2.0000      -1.020425       -27.7672 
   2   2.0000      -0.400563       -10.8999 
   3   2.0000      -0.387210       -10.5365 
   4   2.0000      -0.382225       -10.4009 
   5   0.0000      -0.110437        -3.0051 
   6   0.0000      -0.079111        -2.1527 
   7   0.0000       0.045593         1.2407 
   8   0.0000       0.048332         1.3152 
   9   0.0000       0.115969         3.1557 
  10   0.0000       0.126817         3.4509 
  11   0.0000       0.167689         4.5631 
  12   0.0000       0.173905         4.7322 
  13   0.0000       0.194149         5.2831 
  14   0.0000       0.226145         6.1537 
  15   0.0000       0.239086         6.5059 
  16   0.0000       0.265146         7.2150 
  17   0.0000       0.275032         7.4840 
  18   0.0000       0.281989         7.6733 
  19   0.0000       0.481012        13.0890 
  20   0.0000       0.519991        14.1497 
  21   0.0000       0.618404        16.8276 
  22   0.0000       0.643777        17.5181 
  23   0.0000       0.646572        17.5941 
  24   0.0000       0.671080        18.2610 
  25   0.0000       0.693439        18.8694 
  26   0.0000       0.746112        20.3027 
  27   0.0000       0.786106        21.3910 
  28   0.0000       0.795190        21.6382 
  29   0.0000       0.798809        21.7367 
  30   0.0000       0.809011        22.0143 
  31   0.0000       0.847992        23.0750 
  32   0.0000       0.877660        23.8823 
  33   0.0000       0.904350        24.6086 
  34   0.0000       0.910267        24.7696 
  35   0.0000       0.916215        24.9315 
  36   0.0000       0.951768        25.8989 
  37   0.0000       1.006847        27.3977 
  38   0.0000       1.042881        28.3782 
  39   0.0000       1.052864        28.6499 
  40   0.0000       1.064158        28.9572 
  41   0.0000       1.161541        31.6071 
  42   0.0000       1.162044        31.6208 
  43   0.0000       1.295342        35.2480 
  44   0.0000       1.543640        42.0046 
  45   0.0000       1.811597        49.2961 
  46   0.0000       2.007695        54.6321 
  47   0.0000       2.016705        54.8773 
  48   0.0000       2.048524        55.7432 
  49   0.0000       2.084622        56.7254 
  50   0.0000       2.111087        57.4456 
  51   0.0000       2.133391        58.0525 
  52   0.0000       2.182776        59.3964 
  53   0.0000       2.193365        59.6845 
  54   0.0000       2.240256        60.9605 
  55   0.0000       2.316074        63.0236 
  56   0.0000       2.363484        64.3137 
  57   0.0000       2.386882        64.9504 
  58   0.0000       2.859268        77.8046 
  59   0.0000       2.874123        78.2089 
  60   0.0000       3.646907        99.2374 
  61   0.0000       3.668119        99.8146 
  62   0.0000       3.697523       100.6147 
  63   0.0000       3.700234       100.6885 
  64   0.0000       3.722368       101.2908 
  65   0.0000       3.748050       101.9896 
  66   0.0000       3.789611       103.1206 
  67   0.0000       3.840139       104.4955 
  68   0.0000       3.898086       106.0723 
  69   0.0000       3.916609       106.5763 
  70   0.0000       3.917920       106.6120 
  71   0.0000       3.956192       107.6535 
  72   0.0000       4.011695       109.1638 
  73   0.0000       4.096081       111.4600 
  74   0.0000       4.103100       111.6510 
  75   0.0000       4.136197       112.5516 
  76   0.0000       4.269321       116.1741 
  77   0.0000       4.439221       120.7974 
  78   0.0000       4.517628       122.9309 
  79   0.0000       6.272481       170.6829 
  80   0.0000       6.309878       171.7005 
  81   0.0000       6.381081       173.6380 
  82   0.0000       6.382152       173.6672 
  83   0.0000       6.418307       174.6510 
  84   0.0000       6.530436       177.7022 
  85   0.0000       6.589753       179.3163 
  86   0.0000       6.766543       184.1270 
  87   0.0000       6.775650       184.3748 
  88   0.0000       6.789333       184.7471 
  89   0.0000       6.855776       186.5551 
  90   0.0000       7.033416       191.3890 
  91   0.0000       9.999529       272.1010 

                    ********************************
                    * MULLIKEN POPULATION ANALYSIS *
                    ********************************

-----------------------
MULLIKEN ATOMIC CHARGES
-----------------------
   0 O :   -0.491309
   1 H :    0.245654
   2 H :    0.245654
Sum of atomic charges:   -0.0000000

--------------------------------
MULLIKEN REDUCED ORBITAL CHARGES
--------------------------------
  0 O s       :     3.979039  s :     3.979039
      pz      :     1.262958  p :     4.494634
      px      :     1.984857
      py      :     1.246819
      dz2     :     0.000786  d :     0.016216
      dxz     :     0.000321
      dyz     :     0.012691
      dx2y2   :     0.002419
      dxy     :    -0.000000
      f0      :    -0.000046  f :     0.001419
      f+1     :     0.000026
      f-1     :     0.000170
      f+2     :     0.000738
      f-2     :     0.000000
      f+3     :     0.000089
      f-3     :     0.000442
  1 H s       :     0.733918  s :     0.733918
      pz      :     0.003931  p :     0.017900
      px      :     0.006139
      py      :     0.007829
      dz2     :     0.000338  d :     0.002528
      dxz     :     0.000464
      dyz     :     0.000302
      dx2y2   :     0.000675
      dxy     :     0.000751
  2 H s       :     0.733918  s :     0.733918
      pz      :     0.003931  p :     0.017900
      px      :     0.006139
      py      :     0.007829
      dz2     :     0.000338  d :     0.002528
      dxz     :     0.000464
      dyz     :     0.000302
      dx2y2   :     0.000675
      dxy     :     0.000751


                     *******************************
                     * LOEWDIN POPULATION ANALYSIS *
                     *******************************

----------------------
LOEWDIN ATOMIC CHARGES
----------------------
   0 O :   -0.188406
   1 H :    0.094203
   2 H :    0.094203

-------------------------------
LOEWDIN REDUCED ORBITAL CHARGES
-------------------------------
  0 O s       :     3.709872  s :     3.709872
      pz      :     1.272903  p :     4.421636
      px      :     1.896226
      py      :     1.252507
      dz2     :     0.000111  d :     0.051420
      dxz     :     0.000447
      dyz     :     0.035039
      dx2y2   :     0.015824
      dxy     :    -0.000000
      f0      :     0.000645  f :     0.005478
      f+1     :     0.000011
      f-1     :     0.001310
      f+2     :     0.002787
      f-2     :    -0.000000
      f+3     :     0.000071
      f-3     :     0.000654
  1 H s       :     0.665661  s :     0.665661
      pz      :     0.045507  p :     0.127118
      px      :     0.023104
      py      :     0.058507
      dz2     :     0.014976  d :     0.113018
      dxz     :     0.010830
      dyz     :     0.048257
      dx2y2   :     0.021267
      dxy     :     0.017688
  2 H s       :     0.665661  s :     0.665661
      pz      :     0.045507  p :     0.127118
      px      :     0.023104
      py      :     0.058507
      dz2     :     0.014976  d :     0.113018
      dxz     :     0.010830
      dyz     :     0.048257
      dx2y2   :     0.021267
      dxy     :     0.017688


                      *****************************
                      * MAYER POPULATION ANALYSIS *
                      *****************************

  NA   - Mulliken gross atomic population
  ZA   - Total nuclear charge
  QA   - Mulliken gross atomic charge
  VA   - Mayer's total valence
  BVA  - Mayer's bonded valence
  FA   - Mayer's free valence

  ATOM       NA         ZA         QA         VA         BVA        FA
  0 O      8.4913     8.0000    -0.4913     1.8900     1.8900    -0.0000
  1 H      0.7543     1.0000     0.2457     0.9566     0.9566    -0.0000
  2 H      0.7543     1.0000     0.2457     0.9566     0.9566    -0.0000

  Mayer bond orders larger than 0.100000
B(  0-O ,  1-H ) :   0.9450 B(  0-O ,  2-H ) :   0.9450 

-------
TIMINGS
-------

Total SCF time: 0 days 0 hours 0 min 2 sec 

Total time                  ....       2.370 sec
Sum of individual times     ....       2.253 sec  ( 95.0%)

Fock matrix formation       ....       2.027 sec  ( 85.5%)
  XC integration            ....       0.219 sec  ( 10.8% of F)
    Basis function eval.    ....       0.031 sec  ( 14.3% of XC)
    Density eval.           ....       0.016 sec  (  7.3% of XC)
    XC-Functional eval.     ....       0.011 sec  (  4.9% of XC)
    XC-Potential eval.      ....       0.031 sec  ( 14.2% of XC)
Diagonalization             ....       0.022 sec  (  0.9%)
Density matrix formation    ....       0.006 sec  (  0.3%)
Population analysis         ....       0.003 sec  (  0.1%)
Initial guess               ....       0.096 sec  (  4.0%)
Orbital Transformation      ....       0.000 sec  (  0.0%)
Orbital Orthonormalization  ....       0.000 sec  (  0.0%)
DIIS solution               ....       0.015 sec  (  0.6%)
SOSCF solution              ....       0.003 sec  (  0.1%)
Grid generation             ....       0.082 sec  (  3.4%)


           ************************************************************
           *        Program running with 24 parallel MPI-processes    *
           *              working on a common directory               *
           ************************************************************

------------------------------------------------------------------------------
                                ORCA  MP2 
------------------------------------------------------------------------------

Freezing NCore=2 chemical core electrons

----------------------
RI-MP2 ENERGY+GRADIENT
----------------------
Dimension of the basis                    ...   92
Memory devoted to MP2                     ... 5000 MB   
Data format for buffers                   ... DOUBLE
Compression type for matrix containers    ... UNCOMPRESSED
Overall scaling of the MP2 energy         ...   2.700e-01
Calculating two index integrals           ... done (    0.001 sec)
Cholesky decomposition of the V-matrix    ... done
Cholesky decomposition of V**-1           ... done (    0.052 sec)

-----------------
RI-TRANSFORMATION (AUX index driven)
-----------------

Dimension of the orbital-basis         ... 92
Dimension of the aux-basis             ... 106
Transformation of internal MOs         ...    0-   4
Transformation of internal/external MOs...    0-   4 to    5-  91
Number Format for Storage              ... Double (8 Byte)
Integral mode                          ... Direct

First Phase: integral generation and transformation of MO indices
  Aux angular momentum 0               ... done (    0.000 sec)
  Aux angular momentum 1               ... done (    0.000 sec)
  Aux angular momentum 2               ... done (    0.001 sec)
  Aux angular momentum 3               ... done (    0.001 sec)
  Aux angular momentum 4               ... done (    0.001 sec)
Closing buffer VIJ ( 0.00 GB; CompressionRatio= 0.91)
Closing buffer VIA ( 0.00 GB; CompressionRatio= 1.00)
  Phase 1 completed in     0.078 sec
Second Phase: sorting and transformation of aux index

IJ-Transformation
Memory available                       ... 4998 MB 
Max. # MO pairs treated in a batch     ... 1    
# of internal orbitals                 ... 5
# batches for internal orbitals        ... 1
Closing buffer IJV ( 0.00 GB; CompressionRatio= 0.99)
(ij|v) transformation done in     0.001 sec

IA-Transformation
Memory available                       ... 4998 MB 
Max. # MO pairs treated in a batch     ... 1    
# of internal orbitals                 ... 5
# batches for internal orbitals        ... 1
Closing buffer IAV ( 0.00 GB; CompressionRatio= 1.00)
(ia|v) transformation done in     0.001 sec

  Phase 2 completed in     0.045 sec
RI-Integral transformation completed in     0.125 sec
Opening buffers                              ... done
Frozen core precalculation                   ... done

Starting loop over batches of integrals:

Operator 0  - window                       ... (  1-  4)x(  5- 91)
Operator 0  - Memory available             ...  5000 MB
Operator 0  - Memory needed per MO         ...   0.1 MB
Operator 0  - Number of orbitals per batch ... 1
Operator 0  - Number of batches            ... 1

OPERATOR  0   PASS   0:  MOs     1 ...    1 +    2 ...    2 +    3 ...    3 +    4 ...    4
  Reading integrals       ... ok
Closing buffer GIPV ( 0.00 GB; CompressionRatio= 1.00)
Time spent in pair loops =     0.018 sec
Deleting buffer (Ka|jb)[aa] ...done

-----------------------------------------------
 RI-MP2 CORRELATION ENERGY:     -0.130571566 Eh
-----------------------------------------------


---------------------
MP2 DENSITY FORMATION
---------------------

Completing the external part of the density      ... done
Storing the unrelaxed density                    ... done

Calculating the xc-kernel                        ... done
Calculating G(D)                                 ... done
Completing the Lagrangian                        ... done
Solving the Z-vector equations                   ... 

------------------------------------------------------------------------------
                           ORCA CP-SCF CALCULATION
------------------------------------------------------------------------------

Input orbitals are from        ... 01_H2O.gbw
Input Perturbation             ... 01_H2O.pin.tmp
Wavefunction output            ... 01_H2O.pout.tmp
Perturbation mode              ... Real perturbation (singlet)
Solver                         ... POPLE
Max. number of iterations      ... 128
Convergence tolerance          ... 1.000e-08
Integral handling              ... Direct
Number of perturbations        ... 1
Number of operators            ... 1
Orbital ranges used for CP-SCF:
 Operator 0:  Orbitals   0...  4  to   5... 91
DFT calculation                         ... on
Exchange functional (SCF)               ... B88
Exchange functional (CP-SCF)            ... B88
   X-Alpha parameter    XAlpha (SCF)    ...  0.666667
   X-Alpha parameter    XAlpha (CP-SCF) ...  0.666667
   Becke's b parameter  XBeta (SCF)     ...  0.004200
   Becke's b parameter  XBeta (CP-SCF)  ...  0.004200
Correlation functional (SCF)            ... LYP
Correlation functional (CP-SCF)         ... LYP
 LDA part of GGA corr.  LDAOpt (SCF)    ... VWN-3
 LDA part of GGA corr.  LDAOpt (CP-SCF) ... VWN-3
Hybrid DFT                              ... on
   Exchange mixing (SCF)                ...  0.530
   Exchange mixing (CP-SCF)             ...  0.530
   GGA exch. scaling(SCF)               ...  0.470
   GGA exch. scaling (CP-SCF)           ...  0.470
   GGA corr. scaling (SCF)              ...  0.730
   GGA corr. scaling (CP-SCF)           ...  0.730
Variables per vector in CP-SCF ... 435
Number of vectors sought       ... 1
Recalculating density on grid  ... done
Calculating the xc-kernel      ... done
     CP-SCF ITERATION   0: 
     CP-SCF ITERATION   1:      0.002192563012
     CP-SCF ITERATION   2:      0.000075254848
     CP-SCF ITERATION   3:      0.000024476806
     CP-SCF ITERATION   4:      0.000001947591
     CP-SCF ITERATION   5:      0.000000013707
     CP-SCF ITERATION   6:      0.000000000101
done
Finalizing the relaxed density                   ... done
Transforming P to the AO basis                   ... done
Storing the relaxed density                      ... done

------------------------------------
ENERGY WEIGHTED DENSITY FINALIZATION
------------------------------------

Gathering the parts of the W-matrix              ... done
Forming the Z-density                            ... done
Transforming Z to the AO basis                   ... done
Calculating G(Z)                                 ... done
Finalizing the W-matrix                          ... done
Transforming W to the AO basis and storing       ... done
Entering the RIJONX and RIJCOSX sections
Starting the three-index derivative integrals:
Operator 0  - Memory available             ...  5000 MB
Operator 0  - Memory needed per MO         ...   0.1 MB
Operator 0  - Number of orbitals per batch ... 1
Operator 0  - Number of batches            ... 1

OPERATOR  0   PASS   0:  MOs     1 ...    1 +    2 ...    2 +    3 ...    3 +    4 ...    4

----------------------------------
MP2 DERIVATIVE INTEGRAL GENERATION
----------------------------------


Input Correlated Electron Density   ... 01_H2O.pmp2re
Input Energy Weighted Density       ... 01_H2O.wmp2.tmp
Input SCF Electron Density          ... 01_H2O.scfp

One-Electron Terms    ...
                        ... One-Electron Terms done
Prescreening matrices              ... done
Exchange-correlation gradient    ... done
Dispersion correction            ... done

                *********************************************
                * UNRELAXED MP2 DENSITY POPULATION ANALYSIS *
                *********************************************

------------------------------------------------------------------------------
                           ORCA POPULATION ANALYSIS
------------------------------------------------------------------------------
Input electron density              ... 01_H2O.pmp2ur
BaseName (.gbw .S,...)              ... 01_H2O

                    ********************************
                    * MULLIKEN POPULATION ANALYSIS *
                    ********************************

-----------------------
MULLIKEN ATOMIC CHARGES
-----------------------
   0 O :   -0.458358
   1 H :    0.229179
   2 H :    0.229179
Sum of atomic charges:   -0.0000000

--------------------------------
MULLIKEN REDUCED ORBITAL CHARGES
--------------------------------
  0 O s       :     3.972954  s :     3.972954
      pz      :     1.246307  p :     4.456817
      px      :     1.977839
      py      :     1.232671
      dz2     :     0.002798  d :     0.026109
      dxz     :     0.002476
      dyz     :     0.014268
      dx2y2   :     0.004339
      dxy     :     0.002228
      f0      :     0.000117  f :     0.002478
      f+1     :     0.000191
      f-1     :     0.000311
      f+2     :     0.000847
      f-2     :     0.000171
      f+3     :     0.000259
      f-3     :     0.000581
  1 H s       :     0.748577  s :     0.748577
      pz      :     0.004479  p :     0.019542
      px      :     0.007141
      py      :     0.007922
      dz2     :     0.000348  d :     0.002702
      dxz     :     0.000513
      dyz     :     0.000345
      dx2y2   :     0.000651
      dxy     :     0.000844
  2 H s       :     0.748577  s :     0.748577
      pz      :     0.004479  p :     0.019542
      px      :     0.007141
      py      :     0.007922
      dz2     :     0.000348  d :     0.002702
      dxz     :     0.000513
      dyz     :     0.000345
      dx2y2   :     0.000651
      dxy     :     0.000844


                     *******************************
                     * LOEWDIN POPULATION ANALYSIS *
                     *******************************

----------------------
LOEWDIN ATOMIC CHARGES
----------------------
   0 O :   -0.160560
   1 H :    0.080280
   2 H :    0.080280

-------------------------------
LOEWDIN REDUCED ORBITAL CHARGES
-------------------------------
  0 O s       :     3.706209  s :     3.706209
      pz      :     1.256438  p :     4.383532
      px      :     1.888291
      py      :     1.238803
      dz2     :     0.002134  d :     0.063885
      dxz     :     0.002494
      dyz     :     0.038790
      dx2y2   :     0.018297
      dxy     :     0.002169
      f0      :     0.000837  f :     0.006935
      f+1     :     0.000175
      f-1     :     0.001512
      f+2     :     0.003121
      f-2     :     0.000171
      f+3     :     0.000241
      f-3     :     0.000879
  1 H s       :     0.675547  s :     0.675547
      pz      :     0.046734  p :     0.130970
      px      :     0.024571
      py      :     0.059665
      dz2     :     0.014481  d :     0.113203
      dxz     :     0.010901
      dyz     :     0.048688
      dx2y2   :     0.021294
      dxy     :     0.017838
  2 H s       :     0.675547  s :     0.675547
      pz      :     0.046734  p :     0.130970
      px      :     0.024571
      py      :     0.059665
      dz2     :     0.014481  d :     0.113203
      dxz     :     0.010901
      dyz     :     0.048688
      dx2y2   :     0.021294
      dxy     :     0.017838


                      *****************************
                      * MAYER POPULATION ANALYSIS *
                      *****************************

  NA   - Mulliken gross atomic population
  ZA   - Total nuclear charge
  QA   - Mulliken gross atomic charge
  VA   - Mayer's total valence
  BVA  - Mayer's bonded valence
  FA   - Mayer's free valence

  ATOM       NA         ZA         QA         VA         BVA        FA
  0 O      8.4584     8.0000    -0.4584     2.0933     1.5974     0.4960
  1 H      0.7708     1.0000     0.2292     0.9705     0.8104     0.1600
  2 H      0.7708     1.0000     0.2292     0.9705     0.8104     0.1600

  Mayer bond orders larger than 0.100000
B(  0-O ,  1-H ) :   0.7987 B(  0-O ,  2-H ) :   0.7987 


                *******************************************
                * RELAXED MP2 DENSITY POPULATION ANALYSIS *
                *******************************************

------------------------------------------------------------------------------
                           ORCA POPULATION ANALYSIS
------------------------------------------------------------------------------
Input electron density              ... 01_H2O.pmp2re
BaseName (.gbw .S,...)              ... 01_H2O

                    ********************************
                    * MULLIKEN POPULATION ANALYSIS *
                    ********************************

-----------------------
MULLIKEN ATOMIC CHARGES
-----------------------
   0 O :   -0.439604
   1 H :    0.219802
   2 H :    0.219802
Sum of atomic charges:   -0.0000000

--------------------------------
MULLIKEN REDUCED ORBITAL CHARGES
--------------------------------
  0 O s       :     3.976935  s :     3.976935
      pz      :     1.223939  p :     4.437433
      px      :     1.968984
      py      :     1.244510
      dz2     :     0.002704  d :     0.022845
      dxz     :     0.002574
      dyz     :     0.011547
      dx2y2   :     0.003793
      dxy     :     0.002228
      f0      :     0.000108  f :     0.002391
      f+1     :     0.000195
      f-1     :     0.000290
      f+2     :     0.000808
      f-2     :     0.000171
      f+3     :     0.000268
      f-3     :     0.000551
  1 H s       :     0.754878  s :     0.754878
      pz      :     0.004962  p :     0.021866
      px      :     0.010901
      py      :     0.006003
      dz2     :     0.000346  d :     0.003454
      dxz     :     0.000683
      dyz     :     0.000514
      dx2y2   :     0.000624
      dxy     :     0.001287
  2 H s       :     0.754878  s :     0.754878
      pz      :     0.004962  p :     0.021866
      px      :     0.010901
      py      :     0.006003
      dz2     :     0.000346  d :     0.003454
      dxz     :     0.000683
      dyz     :     0.000514
      dx2y2   :     0.000624
      dxy     :     0.001287


                     *******************************
                     * LOEWDIN POPULATION ANALYSIS *
                     *******************************

----------------------
LOEWDIN ATOMIC CHARGES
----------------------
   0 O :   -0.145193
   1 H :    0.072597
   2 H :    0.072597

-------------------------------
LOEWDIN REDUCED ORBITAL CHARGES
-------------------------------
  0 O s       :     3.704994  s :     3.704994
      pz      :     1.241650  p :     4.370728
      px      :     1.874977
      py      :     1.254101
      dz2     :     0.002096  d :     0.062243
      dxz     :     0.002387
      dyz     :     0.037207
      dx2y2   :     0.018384
      dxy     :     0.002169
      f0      :     0.000866  f :     0.007228
      f+1     :     0.000175
      f-1     :     0.001530
      f+2     :     0.003346
      f-2     :     0.000171
      f+3     :     0.000237
      f-3     :     0.000904
  1 H s       :     0.678870  s :     0.678870
      pz      :     0.046830  p :     0.134742
      px      :     0.030196
      py      :     0.057716
      dz2     :     0.013687  d :     0.113791
      dxz     :     0.011200
      dyz     :     0.049188
      dx2y2   :     0.021090
      dxy     :     0.018627
  2 H s       :     0.678870  s :     0.678870
      pz      :     0.046830  p :     0.134742
      px      :     0.030196
      py      :     0.057716
      dz2     :     0.013687  d :     0.113791
      dxz     :     0.011200
      dyz     :     0.049188
      dx2y2   :     0.021090
      dxy     :     0.018627


                      *****************************
                      * MAYER POPULATION ANALYSIS *
                      *****************************

  NA   - Mulliken gross atomic population
  ZA   - Total nuclear charge
  QA   - Mulliken gross atomic charge
  VA   - Mayer's total valence
  BVA  - Mayer's bonded valence
  FA   - Mayer's free valence

  ATOM       NA         ZA         QA         VA         BVA        FA
  0 O      8.4396     8.0000    -0.4396     2.1011     1.6206     0.4805
  1 H      0.7802     1.0000     0.2198     0.9822     0.8229     0.1593
  2 H      0.7802     1.0000     0.2198     0.9822     0.8229     0.1593

  Mayer bond orders larger than 0.100000
B(  0-O ,  1-H ) :   0.8103 B(  0-O ,  2-H ) :   0.8103 


-------
TIMINGS
-------

Total time                :    2.544 sec
Integral trafo            :    0.137 sec (  5.4%)
FC preparation            :    0.006 sec (  0.2%)
I/O of integrals          :    0.000 sec (  0.0%)
K(i,j) Operators          :    0.000 sec (  0.0%)
T(i,j) pair energies      :    0.000 sec (  0.0%)
V-calculation             :    0.001 sec (  0.0%)
V**(-1/2)                 :    0.052 sec (  2.0%)
Gamma(ia|P)               :    0.000 sec (  0.0%)
Gamma-Trafo               :    0.000 sec (  0.0%)
D(virtual)                :    0.000 sec (  0.0%)
D(internal)               :    0.000 sec (  0.0%)
W(virtual)                :    0.000 sec (  0.0%)
W(internal)               :    0.000 sec (  0.0%)
L(virtual)                :    0.012 sec (  0.5%)
L(internal)               :    0.000 sec (  0.0%)
G(D)                      :    0.224 sec (  8.8%)
G(Z)                      :    0.227 sec (  8.9%)
Z-Vector Solution         :    1.258 sec ( 49.4%)
Z-Vector Solution         :    1.258 sec ( 49.4%)
3-Index Derivative 
+ Separable RIJ part      :    0.047 sec (  1.9%)
2-Index Derivative 
+ Separable RIJ part      :    0.000 sec (  0.0%)
Separable Gradient (X)    :    0.366 sec ( 14.4%)


---------------------------------------
MP2 TOTAL ENERGY:      -76.112035167 Eh
---------------------------------------

-----------------------------------
NORM OF THE MP2 GRADIENT:  0.136830
-----------------------------------


-------------------------------------------------------------------------------
                          DFT DISPERSION CORRECTION                            
                                                                               
                              DFTD3 V3.1  Rev 1                                
                          USING Becke-Johnson damping                          
-------------------------------------------------------------------------------
The B2PLYP functional is recognized
Active option DFTDOPT                   ...         4   

molecular C6(AA) [au] = 85.319616 


            DFT-D V3
 parameters
 s6 scaling factor         :     0.6400 
 a1 scaling factor         :     0.3065 
 s8 scaling factor         :     0.9147 
 a2 scaling factor         :     5.0570 
 ad hoc parameters k1-k3   :    16.0000     1.3333    -4.0000 

 Edisp/kcal,au: -0.262412315139  -0.000418180598 
 E6   /kcal   :  -0.168224841 
 E8   /kcal   :  -0.094187474 
 % E8         :  35.892932164 

-------------------------   ----------------
Dispersion correction           -0.000418181
-------------------------   ----------------


-------------------------   --------------------
FINAL SINGLE POINT ENERGY       -76.112453347555
-------------------------   --------------------

------------------------------------------------------------------------------
                         ORCA GEOMETRY RELAXATION STEP
------------------------------------------------------------------------------

Reading the OPT-File                    .... done
Getting information on internals        .... done
Copying old internal coords+grads       .... done
Making the new internal coordinates     .... (new redundants).... done
Validating the new internal coordinates .... (new redundants).... done
Calculating the B-matrix                .... done
Calculating the G,G- and P matrices     .... done
Transforming gradient to internals      .... done
Projecting the internal gradient        .... done
Number of atoms                         ....   3
Number of internal coordinates          ....   3
Current Energy                          ....   -76.112453348 Eh
Current gradient norm                   ....     0.136829509 Eh/bohr
Maximum allowed component of the step   ....  0.300
Current trust radius                    ....  0.300
Evaluating the initial hessian          ....  (Almloef) done
Projecting the Hessian                  .... done
Forming the augmented Hessian           .... done
Diagonalizing the augmented Hessian     .... done
Last element of RFO vector              ....  0.744476071
Lowest eigenvalues of augmented Hessian:
 -0.098032495  0.022731116  0.113786536
Length of the computed step             ....  0.896804035
Warning: the length of the step is outside the trust region - taking restricted step instead
The input lambda is                     ....    -0.098032
   iter:   1  x=   -0.151907  g=   13.257811 f(x)=     0.714257
   iter:   2  x=   -0.219224  g=    4.397188 f(x)=     0.296004
   iter:   3  x=   -0.286620  g=    1.658982 f(x)=     0.111809
   iter:   4  x=   -0.329065  g=    0.795983 f(x)=     0.033786
   iter:   5  x=   -0.339855  g=    0.542047 f(x)=     0.005849
   iter:   6  x=   -0.340375  g=    0.495258 f(x)=     0.000257
   iter:   7  x=   -0.340376  g=    0.493142 f(x)=     0.000001
   iter:   8  x=   -0.340376  g=    0.493137 f(x)=     0.000000
   iter:   9  x=   -0.340376  g=    0.493137 f(x)=     0.000000
The output lambda is                    ....    -0.340376 (9 iterations)
The final length of the internal step   ....  0.300000000
Converting the step to cartesian space:
 Initial RMS(Int)=    0.1732050808
Transforming coordinates:
 Iter   0:  RMS(Cart)=    0.1013331750 RMS(Int)=    0.1727620301
 Iter   1:  RMS(Cart)=    0.0015912430 RMS(Int)=    0.0018868858
 Iter   2:  RMS(Cart)=    0.0000921335 RMS(Int)=    0.0001389209
 Iter   3:  RMS(Cart)=    0.0000052196 RMS(Int)=    0.0000079959
 Iter   4:  RMS(Cart)=    0.0000002943 RMS(Int)=    0.0000004524
 Iter   5:  RMS(Cart)=    0.0000000166 RMS(Int)=    0.0000000255
done
Storing new coordinates                 .... done

                                .--------------------.
          ----------------------|Geometry convergence|-------------------------
          Item                value                   Tolerance       Converged
          ---------------------------------------------------------------------
          RMS gradient        0.0634027152            0.0001000000      NO
          MAX gradient        0.0762277349            0.0003000000      NO
          RMS step            0.1732050808            0.0020000000      NO
          MAX step            0.2099318064            0.0040000000      NO
          ........................................................
          Max(Bonds)      0.1111      Max(Angles)    2.47
          Max(Dihed)        0.00      Max(Improp)    0.00
          ---------------------------------------------------------------------

The optimization has not yet converged - more geometry cycles are needed


    ---------------------------------------------------------------------------
                         Redundant Internal Coordinates
                            (Angstroem and degrees)

        Definition                    Value    dE/dq     Step     New-Value
    ----------------------------------------------------------------------------
     1. B(H   1,O   0)                1.8120  0.076228 -0.1111    1.7009   
     2. B(H   2,O   0)                1.8120  0.076228 -0.1111    1.7009   
     3. A(H   1,O   0,H   2)          104.36  0.020938   -2.47    101.89   
    ----------------------------------------------------------------------------

         *************************************************************
         *                GEOMETRY OPTIMIZATION CYCLE   2            *
         *************************************************************
---------------------------------
CARTESIAN COORDINATES (ANGSTROEM)
---------------------------------
  O      0.000000   -0.000000    0.098075
  H      0.000000   -1.320853   -0.973611
  H      0.000000    1.320853   -0.973611

----------------------------
CARTESIAN COORDINATES (A.U.)
----------------------------
  NO LB      ZA    FRAG     MASS         X           Y           Z
   0 O     8.0000    0    15.999    0.000000   -0.000000    0.185334
   1 H     1.0000    0     1.008    0.000000   -2.496051   -1.839859
   2 H     1.0000    0     1.008    0.000000    2.496051   -1.839859

--------------------------------
INTERNAL COORDINATES (ANGSTROEM)
--------------------------------
 O      0   0   0     0.000000000000     0.00000000     0.00000000
 H      1   0   0     1.700930400052     0.00000000     0.00000000
 H      1   2   0     1.700930421944   101.89108472     0.00000000

---------------------------
INTERNAL COORDINATES (A.U.)
---------------------------
 O      0   0   0     0.000000000000     0.00000000     0.00000000
 H      1   0   0     3.214292628959     0.00000000     0.00000000
 H      1   2   0     3.214292670329   101.89108472     0.00000000



           ************************************************************
           *        Program running with 24 parallel MPI-processes    *
           *              working on a common directory               *
           ************************************************************
 One Electron integrals                  ... done
 Pre-screening matrix                    ... done


           ************************************************************
           *        Program running with 24 parallel MPI-processes    *
           *              working on a common directory               *
           ************************************************************

Diagonalization of the overlap matrix:
Smallest eigenvalue                        ... 2.055e-03
Time for diagonalization                   ...    0.003 sec
Threshold for overlap eigenvalues          ... 1.000e-08
Number of eigenvalues below threshold      ... 0
Time for construction of square roots      ...    0.001 sec
Total time needed                          ...    0.005 sec

-------------------
DFT GRID GENERATION
-------------------

General Integration Accuracy     IntAcc      ...  4.670
Radial Grid Type                 RadialGrid  ... Gauss-Chebyshev
Angular Grid (max. acc.)         AngularGrid ... Lebedev-302
Angular grid pruning method      GridPruning ... 3 (G Style)
Weight generation scheme         WeightScheme... Becke
Basis function cutoff            BFCut       ...    1.0000e-11
Integration weight cutoff        WCut        ...    1.0000e-14
Grids for H and He will be reduced by one unit

# of grid points (after initial pruning)     ...  13000 (   0.0 sec)
# of grid points (after weights+screening)   ...  12944 (   0.0 sec)
nearest neighbour list constructed           ...    0.0 sec
Grid point re-assignment to atoms done       ...    0.0 sec
Grid point division into batches done        ...    0.1 sec
Reduced shell lists constructed in    0.1 sec

Total number of grid points                  ...    12944
Total number of batches                      ...      204
Average number of points per batch           ...       63
Average number of grid points per atom       ...     4315
Average number of shells per batch           ...    14.90 (46.56%)
Average number of basis functions per batch  ...    38.30 (41.63%)
Average number of large shells per batch     ...     9.80 (65.77%)
Average number of large basis fcns per batch ...    24.80 (64.75%)
Average number of aux-shells per batch       ...    14.90 (40.27%)
Average number of aux functions per batch    ...    38.30 (33.89%)
Maximum spatial batch extension              ...  13.13, 16.88, 13.98 au
Average spatial batch extension              ...   0.50,  0.54,  0.54 au

Time for grid setup =    0.083 sec

--------------
SCF ITERATIONS
--------------
ITER       Energy         Delta-E        Max-DP      RMS-DP      [F,P]     Damp
  0    -76.0234244138   0.000000000000 0.00290464  0.00009409  0.0179253 0.7000
  1    -76.0303325595  -0.006908145758 0.00307091  0.00009926  0.0140344 0.7000
                               ***Turning on DIIS***
  2    -76.0300716779   0.000260881672 0.00558396  0.00023823  0.0089241 0.0000
  3    -76.0240195884   0.006052089423 0.00339074  0.00012935  0.0144801 0.0000
                      *** Initiating the SOSCF procedure ***
                           *** Shutting down DIIS ***
                      *** Re-Reading the Fockian *** 
                      *** Removing any level shift *** 
ITER      Energy       Delta-E        Grad      Rot      Max-DP    RMS-DP
  4    -76.02432974  -0.0003101535  0.001216  0.001216  0.001898  0.000049
  5    -76.02434578  -0.0000160409  0.000811  0.002281  0.000996  0.000043
  6    -76.02433928   0.0000065057  0.001333  0.001166  0.000682  0.000024
  7    -76.02434916  -0.0000098875  0.000058  0.000101  0.000100  0.000003
  8    -76.02434921  -0.0000000498  0.000023  0.000083  0.000044  0.000001
  9    -76.02434922  -0.0000000087  0.000007  0.000042  0.000021  0.000001
                 **** Energy Check signals convergence ****
              ***Rediagonalizing the Fockian in SOSCF/NRSCF***

               *****************************************************
               *                     SUCCESS                       *
               *           SCF CONVERGED AFTER  10 CYCLES          *
               *****************************************************

Total Energy       :          -76.02434922 Eh           -2068.72771 eV
  Last Energy change         ...   -1.6397e-09  Tolerance :   1.0000e-08
  Last MAX-Density change    ...    6.1555e-06  Tolerance :   1.0000e-07
             **** THE GBW FILE WAS UPDATED (01_H2O.gbw) ****
             **** DENSITY FILE WAS UPDATED (01_H2O.scfp) ****
             **** ENERGY FILE WAS UPDATED (01_H2O.en.tmp) ****
             **** THE GBW FILE WAS UPDATED (01_H2O.gbw) ****
             **** DENSITY FILE WAS UPDATED (01_H2O.scfp) ****
Total SCF time: 0 days 0 hours 0 min 1 sec 


           ************************************************************
           *        Program running with 24 parallel MPI-processes    *
           *              working on a common directory               *
           ************************************************************

------------------------------------------------------------------------------
                                ORCA  MP2 
------------------------------------------------------------------------------

Freezing NCore=2 chemical core electrons

----------------------
RI-MP2 ENERGY+GRADIENT
----------------------
Dimension of the basis                    ...   92
Memory devoted to MP2                     ... 5000 MB   
Data format for buffers                   ... DOUBLE
Compression type for matrix containers    ... UNCOMPRESSED
Overall scaling of the MP2 energy         ...   2.700e-01
Calculating two index integrals           ... done (    0.001 sec)
Cholesky decomposition of the V-matrix    ... done
Cholesky decomposition of V**-1           ... done (    0.003 sec)

-----------------
RI-TRANSFORMATION (AUX index driven)
-----------------

Dimension of the orbital-basis         ... 92
Dimension of the aux-basis             ... 106
Transformation of internal MOs         ...    0-   4
Transformation of internal/external MOs...    0-   4 to    5-  91
Number Format for Storage              ... Double (8 Byte)
Integral mode                          ... Direct

First Phase: integral generation and transformation of MO indices
  Aux angular momentum 0               ... done (    0.000 sec)
  Aux angular momentum 1               ... done (    0.000 sec)
  Aux angular momentum 2               ... done (    0.001 sec)
  Aux angular momentum 3               ... done (    0.001 sec)
  Aux angular momentum 4               ... done (    0.001 sec)
Closing buffer VIJ ( 0.00 GB; CompressionRatio= 0.91)
Closing buffer VIA ( 0.00 GB; CompressionRatio= 1.00)
  Phase 1 completed in     0.077 sec
Second Phase: sorting and transformation of aux index

IJ-Transformation
Memory available                       ... 4998 MB 
Max. # MO pairs treated in a batch     ... 1    
# of internal orbitals                 ... 5
# batches for internal orbitals        ... 1
Closing buffer IJV ( 0.00 GB; CompressionRatio= 0.99)
(ij|v) transformation done in     0.000 sec

IA-Transformation
Memory available                       ... 4998 MB 
Max. # MO pairs treated in a batch     ... 1    
# of internal orbitals                 ... 5
# batches for internal orbitals        ... 1
Closing buffer IAV ( 0.00 GB; CompressionRatio= 1.00)
(ia|v) transformation done in     0.001 sec

  Phase 2 completed in     0.006 sec
RI-Integral transformation completed in     0.085 sec
Opening buffers                              ... done
Frozen core precalculation                   ... done

Starting loop over batches of integrals:

Operator 0  - window                       ... (  1-  4)x(  5- 91)
Operator 0  - Memory available             ...  5000 MB
Operator 0  - Memory needed per MO         ...   0.1 MB
Operator 0  - Number of orbitals per batch ... 1
Operator 0  - Number of batches            ... 1

OPERATOR  0   PASS   0:  MOs     1 ...    1 +    2 ...    2 +    3 ...    3 +    4 ...    4
  Reading integrals       ... ok
Closing buffer GIPV ( 0.00 GB; CompressionRatio= 1.00)
Time spent in pair loops =     0.016 sec
Deleting buffer (Ka|jb)[aa] ...done

-----------------------------------------------
 RI-MP2 CORRELATION ENERGY:     -0.122989225 Eh
-----------------------------------------------


---------------------
MP2 DENSITY FORMATION
---------------------

Completing the external part of the density      ... done
Storing the unrelaxed density                    ... done

Calculating the xc-kernel                        ... done
Calculating G(D)                                 ... done
Completing the Lagrangian                        ... done
Solving the Z-vector equations                   ... 

------------------------------------------------------------------------------
                           ORCA CP-SCF CALCULATION
------------------------------------------------------------------------------

Input orbitals are from        ... 01_H2O.gbw
Input Perturbation             ... 01_H2O.pin.tmp
Wavefunction output            ... 01_H2O.pout.tmp
Perturbation mode              ... Real perturbation (singlet)
Solver                         ... POPLE
Max. number of iterations      ... 128
Convergence tolerance          ... 1.000e-08
Integral handling              ... Direct
Number of perturbations        ... 1
Number of operators            ... 1
Orbital ranges used for CP-SCF:
 Operator 0:  Orbitals   0...  4  to   5... 91
DFT calculation                         ... on
Exchange functional (SCF)               ... B88
Exchange functional (CP-SCF)            ... B88
   X-Alpha parameter    XAlpha (SCF)    ...  0.666667
   X-Alpha parameter    XAlpha (CP-SCF) ...  0.666667
   Becke's b parameter  XBeta (SCF)     ...  0.004200
   Becke's b parameter  XBeta (CP-SCF)  ...  0.004200
Correlation functional (SCF)            ... LYP
Correlation functional (CP-SCF)         ... LYP
 LDA part of GGA corr.  LDAOpt (SCF)    ... VWN-3
 LDA part of GGA corr.  LDAOpt (CP-SCF) ... VWN-3
Hybrid DFT                              ... on
   Exchange mixing (SCF)                ...  0.530
   Exchange mixing (CP-SCF)             ...  0.530
   GGA exch. scaling(SCF)               ...  0.470
   GGA exch. scaling (CP-SCF)           ...  0.470
   GGA corr. scaling (SCF)              ...  0.730
   GGA corr. scaling (CP-SCF)           ...  0.730
Variables per vector in CP-SCF ... 435
Number of vectors sought       ... 1
Recalculating density on grid  ... done
Calculating the xc-kernel      ... done
     CP-SCF ITERATION   0: 
     CP-SCF ITERATION   1:      0.002397060455
     CP-SCF ITERATION   2:      0.000031042427
     CP-SCF ITERATION   3:      0.000006418771
     CP-SCF ITERATION   4:      0.000000701572
     CP-SCF ITERATION   5:      0.000000006094
done
Finalizing the relaxed density                   ... done
Transforming P to the AO basis                   ... done
Storing the relaxed density                      ... done

------------------------------------
ENERGY WEIGHTED DENSITY FINALIZATION
------------------------------------

Gathering the parts of the W-matrix              ... done
Forming the Z-density                            ... done
Transforming Z to the AO basis                   ... done
Calculating G(Z)                                 ... done
Finalizing the W-matrix                          ... done
Transforming W to the AO basis and storing       ... done
Entering the RIJONX and RIJCOSX sections
Starting the three-index derivative integrals:
Operator 0  - Memory available             ...  5000 MB
Operator 0  - Memory needed per MO         ...   0.1 MB
Operator 0  - Number of orbitals per batch ... 1
Operator 0  - Number of batches            ... 1

OPERATOR  0   PASS   0:  MOs     1 ...    1 +    2 ...    2 +    3 ...    3 +    4 ...    4

----------------------------------
MP2 DERIVATIVE INTEGRAL GENERATION
----------------------------------


Input Correlated Electron Density   ... 01_H2O.pmp2re
Input Energy Weighted Density       ... 01_H2O.wmp2.tmp
Input SCF Electron Density          ... 01_H2O.scfp

One-Electron Terms    ...
                        ... One-Electron Terms done
Prescreening matrices              ... done
Exchange-correlation gradient    ... done
Dispersion correction            ... done

-------
TIMINGS
-------

Total time                :    2.162 sec
Integral trafo            :    0.097 sec (  4.5%)
FC preparation            :    0.002 sec (  0.1%)
I/O of integrals          :    0.000 sec (  0.0%)
K(i,j) Operators          :    0.000 sec (  0.0%)
T(i,j) pair energies      :    0.000 sec (  0.0%)
V-calculation             :    0.001 sec (  0.0%)
V**(-1/2)                 :    0.003 sec (  0.1%)
Gamma(ia|P)               :    0.000 sec (  0.0%)
Gamma-Trafo               :    0.000 sec (  0.0%)
D(virtual)                :    0.000 sec (  0.0%)
D(internal)               :    0.000 sec (  0.0%)
W(virtual)                :    0.000 sec (  0.0%)
W(internal)               :    0.000 sec (  0.0%)
L(virtual)                :    0.012 sec (  0.5%)
L(internal)               :    0.000 sec (  0.0%)
G(D)                      :    0.222 sec ( 10.3%)
G(Z)                      :    0.205 sec (  9.5%)
Z-Vector Solution         :    1.116 sec ( 51.6%)
Z-Vector Solution         :    1.116 sec ( 51.6%)
3-Index Derivative 
+ Separable RIJ part      :    0.048 sec (  2.2%)
2-Index Derivative 
+ Separable RIJ part      :    0.000 sec (  0.0%)
Separable Gradient (X)    :    0.390 sec ( 18.1%)


---------------------------------------
MP2 TOTAL ENERGY:      -76.147338450 Eh
---------------------------------------

-----------------------------------
NORM OF THE MP2 GRADIENT:  0.160313
-----------------------------------


-------------------------------------------------------------------------------
                          DFT DISPERSION CORRECTION                            
                                                                               
                              DFTD3 V3.1  Rev 1                                
                          USING Becke-Johnson damping                          
-------------------------------------------------------------------------------
-------------------------   ----------------
Dispersion correction           -0.000432720
-------------------------   ----------------


-------------------------   --------------------
FINAL SINGLE POINT ENERGY       -76.147771170208
-------------------------   --------------------

------------------------------------------------------------------------------
                         ORCA GEOMETRY RELAXATION STEP
------------------------------------------------------------------------------

Reading the OPT-File                    .... done
Getting information on internals        .... done
Copying old internal coords+grads       .... done
Making the new internal coordinates     .... (new redundants).... done
Validating the new internal coordinates .... (new redundants).... done
Calculating the B-matrix                .... done
Calculating the G,G- and P matrices     .... done
Transforming gradient to internals      .... done
Projecting the internal gradient        .... done
Number of atoms                         ....   3
Number of internal coordinates          ....   3
Current Energy                          ....   -76.147771170 Eh
Current gradient norm                   ....     0.160313493 Eh/bohr
Maximum allowed component of the step   ....  0.300
Current trust radius                    ....  0.300
Updating the Hessian (BFGS)             .... done
Forming the augmented Hessian           .... done
Diagonalizing the augmented Hessian     .... done
Last element of RFO vector              ....  0.628547961
Lowest eigenvalues of augmented Hessian:
 -0.155312062  0.022731116  0.099183859
Length of the computed step             ....  1.237408878
Warning: the length of the step is outside the trust region - taking restricted step instead
The input lambda is                     ....    -0.155312
   iter:   1  x=   -0.203004  g=   30.218634 f(x)=     1.441181
   iter:   2  x=   -0.268071  g=    9.499303 f(x)=     0.618093
   iter:   3  x=   -0.347096  g=    3.204255 f(x)=     0.253217
   iter:   4  x=   -0.421703  g=    1.248931 f(x)=     0.093179
   iter:   5  x=   -0.463475  g=    0.632745 f(x)=     0.026431
   iter:   6  x=   -0.471996  g=    0.458268 f(x)=     0.003905
   iter:   7  x=   -0.472271  g=    0.430825 f(x)=     0.000119
   iter:   8  x=   -0.472271  g=    0.429976 f(x)=     0.000000
   iter:   9  x=   -0.472271  g=    0.429975 f(x)=     0.000000
   iter:  10  x=   -0.472271  g=    0.429975 f(x)=     0.000000
The output lambda is                    ....    -0.472271 (10 iterations)
The final length of the internal step   ....  0.300000000
Converting the step to cartesian space:
 Initial RMS(Int)=    0.1732050808
Transforming coordinates:
 Iter   0:  RMS(Cart)=    0.0986126584 RMS(Int)=    0.1728732461
 Iter   1:  RMS(Cart)=    0.0015154704 RMS(Int)=    0.0018286334
 Iter   2:  RMS(Cart)=    0.0000955531 RMS(Int)=    0.0001387532
 Iter   3:  RMS(Cart)=    0.0000060325 RMS(Int)=    0.0000088003
 Iter   4:  RMS(Cart)=    0.0000003804 RMS(Int)=    0.0000005557
 Iter   5:  RMS(Cart)=    0.0000000240 RMS(Int)=    0.0000000350
done
Storing new coordinates                 .... done

                                .--------------------.
          ----------------------|Geometry convergence|-------------------------
          Item                value                   Tolerance       Converged
          ---------------------------------------------------------------------
          Energy change      -0.0353178227            0.0000050000      NO
          RMS gradient        0.0725582130            0.0001000000      NO
          MAX gradient        0.0877685724            0.0003000000      NO
          RMS step            0.1732050808            0.0020000000      NO
          MAX step            0.2102473593            0.0040000000      NO
          ........................................................
          Max(Bonds)      0.1113      Max(Angles)    2.29
          Max(Dihed)        0.00      Max(Improp)    0.00
          ---------------------------------------------------------------------

The optimization has not yet converged - more geometry cycles are needed


    ---------------------------------------------------------------------------
                         Redundant Internal Coordinates
                            (Angstroem and degrees)

        Definition                    Value    dE/dq     Step     New-Value
    ----------------------------------------------------------------------------
     1. B(H   1,O   0)                1.7009  0.087769 -0.1113    1.5897   
     2. B(H   2,O   0)                1.7009  0.087769 -0.1113    1.5897   
     3. A(H   1,O   0,H   2)          101.89  0.019684   -2.29     99.60   
[...]
LOEWDIN REDUCED ORBITAL CHARGES
-------------------------------
  0 O s       :     3.010523  s :     3.010523
      pz      :     1.305783  p :     3.863290
      px      :     1.413766
      py      :     1.143741
      dz2     :     0.002298  d :     0.077839
      dxz     :     0.002404
      dyz     :     0.051516
      dx2y2   :     0.019733
      dxy     :     0.001888
      f0      :     0.001878  f :     0.016555
      f+1     :     0.000184
      f-1     :     0.004781
      f+2     :     0.006927
      f-2     :     0.000189
      f+3     :     0.000337
      f-3     :     0.002258
  1 H s       :     0.587682  s :     0.587682
      pz      :     0.205222  p :     0.571320
      px      :     0.175417
      py      :     0.190681
      dz2     :     0.078680  d :     0.356894
      dxz     :     0.043082
      dyz     :     0.093797
      dx2y2   :     0.068838
      dxy     :     0.072496
  2 H s       :     0.587682  s :     0.587682
      pz      :     0.205222  p :     0.571320
      px      :     0.175417
      py      :     0.190681
      dz2     :     0.078680  d :     0.356894
      dxz     :     0.043082
      dyz     :     0.093797
      dx2y2   :     0.068838
      dxy     :     0.072496


                      *****************************
                      * MAYER POPULATION ANALYSIS *
                      *****************************

  NA   - Mulliken gross atomic population
  ZA   - Total nuclear charge
  QA   - Mulliken gross atomic charge
  VA   - Mayer's total valence
  BVA  - Mayer's bonded valence
  FA   - Mayer's free valence

  ATOM       NA         ZA         QA         VA         BVA        FA
  0 O      8.3866     8.0000    -0.3866     2.1501     2.0030     0.1471
  1 H      0.8067     1.0000     0.1933     1.0613     1.0329     0.0284
  2 H      0.8067     1.0000     0.1933     1.0613     1.0329     0.0284

  Mayer bond orders larger than 0.100000
B(  0-O ,  1-H ) :   1.0015 B(  0-O ,  2-H ) :   1.0015 


-------
TIMINGS
-------

Total time                :    2.051 sec
Integral trafo            :    0.123 sec (  6.0%)
FC preparation            :    0.002 sec (  0.1%)
I/O of integrals          :    0.000 sec (  0.0%)
K(i,j) Operators          :    0.000 sec (  0.0%)
T(i,j) pair energies      :    0.000 sec (  0.0%)
V-calculation             :    0.001 sec (  0.0%)
V**(-1/2)                 :    0.004 sec (  0.2%)
Gamma(ia|P)               :    0.000 sec (  0.0%)
Gamma-Trafo               :    0.000 sec (  0.0%)
D(virtual)                :    0.000 sec (  0.0%)
D(internal)               :    0.000 sec (  0.0%)
W(virtual)                :    0.000 sec (  0.0%)
W(internal)               :    0.000 sec (  0.0%)
L(virtual)                :    0.012 sec (  0.6%)
L(internal)               :    0.000 sec (  0.0%)
G(D)                      :    0.221 sec ( 10.8%)
G(Z)                      :    0.195 sec (  9.5%)
Z-Vector Solution         :    0.970 sec ( 47.3%)
Z-Vector Solution         :    0.970 sec ( 47.3%)
3-Index Derivative 
+ Separable RIJ part      :    0.048 sec (  2.3%)
2-Index Derivative 
+ Separable RIJ part      :    0.000 sec (  0.0%)
Separable Gradient (X)    :    0.399 sec ( 19.5%)


---------------------------------------
MP2 TOTAL ENERGY:      -76.414592129 Eh
---------------------------------------

-----------------------------------
NORM OF THE MP2 GRADIENT:  0.000026
-----------------------------------


-------------------------------------------------------------------------------
                          DFT DISPERSION CORRECTION                            
                                                                               
                              DFTD3 V3.1  Rev 1                                
                          USING Becke-Johnson damping                          
-------------------------------------------------------------------------------
The B2PLYP functional is recognized
Active option DFTDOPT                   ...         4   

molecular C6(AA) [au] = 44.532511 


            DFT-D V3
 parameters
 s6 scaling factor         :     0.6400 
 a1 scaling factor         :     0.3065 
 s8 scaling factor         :     0.9147 
 a2 scaling factor         :     5.0570 
 ad hoc parameters k1-k3   :    16.0000     1.3333    -4.0000 

 Edisp/kcal,au: -0.147017059747  -0.000234286573 
 E6   /kcal   :  -0.095277244 
 E8   /kcal   :  -0.051739816 
 % E8         :  35.193069450 

-------------------------   ----------------
Dispersion correction           -0.000234287
-------------------------   ----------------


-------------------------   --------------------
FINAL SINGLE POINT ENERGY       -76.414826415860
-------------------------   --------------------

                                *** OPTIMIZATION RUN DONE ***

                            ***************************************
                            *     ORCA property calculations      *
                            ***************************************

                                    ---------------------
                                    Active property flags
                                    ---------------------
   (+) Dipole Moment


------------------------------------------------------------------------------
                       ORCA ELECTRIC PROPERTIES CALCULATION
------------------------------------------------------------------------------

Dipole Moment Calculation                       ... on
Quadrupole Moment Calculation                   ... off
Polarizability Calculation                      ... off
GBWName                                         ... 01_H2O.gbw
Electron density file                           ... 01_H2O.scfp
The origin for moment calculation is the CENTER OF MASS  = ( 0.000000,  0.000000 -0.550149)

-------------
DIPOLE MOMENT
-------------
                                X             Y             Z
Electronic contribution:     -0.00000       0.00000       0.22357
Nuclear contribution   :      0.00000      -0.00000      -0.97603
                        -----------------------------------------
Total Dipole Moment    :     -0.00000       0.00000      -0.75246
                        -----------------------------------------
Magnitude (a.u.)       :      0.75246
Magnitude (Debye)      :      1.91259



--------------------
Rotational spectrum 
--------------------
 
Rotational constants in cm-1:    27.390919    14.434035     9.452766 
Rotational constants in MHz : 821159.107480 432721.479647 283386.781535 

 Dipole components along the rotational axes: 
x,y,z [a.u.] :     0.000001    -0.752457    -0.000000 
x,y,z [Debye]:     0.000001    -1.912593    -0.000000 

 

                         *** MP2 UNRELAXED DENSITY ***

------------------------------------------------------------------------------
                       ORCA ELECTRIC PROPERTIES CALCULATION
------------------------------------------------------------------------------

Dipole Moment Calculation                       ... on
Quadrupole Moment Calculation                   ... off
Polarizability Calculation                      ... off
GBWName                                         ... 01_H2O.gbw
Electron density file                           ... 01_H2O.pmp2ur
The origin for moment calculation is the CENTER OF MASS  = ( 0.000000,  0.000000 -0.550149)

-------------
DIPOLE MOMENT
-------------
                                X             Y             Z
Electronic contribution:     -0.00000       0.00000       0.23204
Nuclear contribution   :      0.00000      -0.00000      -0.97603
                        -----------------------------------------
Total Dipole Moment    :     -0.00000       0.00000      -0.74399
                        -----------------------------------------
Magnitude (a.u.)       :      0.74399
Magnitude (Debye)      :      1.89108



--------------------
Rotational spectrum 
--------------------
 
Rotational constants in cm-1:    27.390919    14.434035     9.452766 
Rotational constants in MHz : 821159.107480 432721.479647 283386.781535 

 Dipole components along the rotational axes: 
x,y,z [a.u.] :     0.000001    -0.743991    -0.000000 
x,y,z [Debye]:     0.000001    -1.891076    -0.000000 

 

                           *** MP2 RELAXED DENSITY ***

------------------------------------------------------------------------------
                       ORCA ELECTRIC PROPERTIES CALCULATION
------------------------------------------------------------------------------

Dipole Moment Calculation                       ... on
Quadrupole Moment Calculation                   ... off
Polarizability Calculation                      ... off
GBWName                                         ... 01_H2O.gbw
Electron density file                           ... 01_H2O.pmp2re
The origin for moment calculation is the CENTER OF MASS  = ( 0.000000,  0.000000 -0.550149)

-------------
DIPOLE MOMENT
-------------
                                X             Y             Z
Electronic contribution:     -0.00000       0.00000       0.24853
Nuclear contribution   :      0.00000      -0.00000      -0.97603
                        -----------------------------------------
Total Dipole Moment    :     -0.00000       0.00000      -0.72750
                        -----------------------------------------
Magnitude (a.u.)       :      0.72750
Magnitude (Debye)      :      1.84915



--------------------
Rotational spectrum 
--------------------
 
Rotational constants in cm-1:    27.390919    14.434035     9.452766 
Rotational constants in MHz : 821159.107480 432721.479647 283386.781535 

 Dipole components along the rotational axes: 
x,y,z [a.u.] :     0.000001    -0.727499    -0.000000 
x,y,z [Debye]:     0.000001    -1.849154    -0.000000 

 

----------------------------------------------------------------------------
                           ORCA NUMERICAL FREQUENCIES
                              (24-process run)
----------------------------------------------------------------------------

Number of atoms                ... 3
Central differences            ... used
Number of displacements        ... 18
Numerical increment            ... 5.000e-03 bohr
IR-spectrum generation         ... on
Raman-spectrum generation      ... off
Surface Crossing Hessian       ... off

 WARNING: There are more processes than displacements to do
  ====> : Reducing number of processes to   9

The output will be reduced. Please look at the following files:
SCF program output             ... >01_H2O.lastscf
Integral program output        ... >01_H2O.lastint
Gradient program output        ... >01_H2O.lastgrad
Dipole moment program output   ... >01_H2O.lastmom
AutoCI program output          ... >01_H2O.lastautoci


         <<< Energy and Gradient at the input geometry >>>

        <<< Energy and Gradient at displaced geometries >>>
             <<<Displacing   1/coordinate 3 (+)>>>
             <<<Displacing   3/coordinate 1 (+)>>>
             <<<Displacing   3/coordinate 3 (+)>>>
             <<<Displacing   3/coordinate 2 (+)>>>
             <<<Displacing   1/coordinate 2 (+)>>>
             <<<Displacing   2/coordinate 1 (+)>>>
             <<<Displacing   2/coordinate 2 (+)>>>
             <<<Displacing   2/coordinate 3 (+)>>>
             <<<Displacing   1/coordinate 1 (+)>>>
             <<<Displacing   1/coordinate 3 (-)>>>
             <<<Displacing   1/coordinate 2 (-)>>>
             <<<Displacing   2/coordinate 2 (-)>>>
             <<<Displacing   3/coordinate 3 (-)>>>
             <<<Displacing   2/coordinate 3 (-)>>>
             <<<Displacing   3/coordinate 2 (-)>>>
             <<<Displacing   2/coordinate 1 (-)>>>
             <<<Displacing   1/coordinate 1 (-)>>>
             <<<Displacing   3/coordinate 1 (-)>>>

-----------------------
VIBRATIONAL FREQUENCIES
-----------------------

Scaling factor for frequencies =  1.000000000 (already applied!)

   0:         0.00 cm**-1
   1:         0.00 cm**-1
   2:         0.00 cm**-1
   3:         0.00 cm**-1
   4:         0.00 cm**-1
   5:         0.00 cm**-1
   6:      1634.11 cm**-1
   7:      3811.88 cm**-1
   8:      3921.75 cm**-1


------------
NORMAL MODES
------------

These modes are the cartesian displacements weighted by the diagonal matrix
M(i,i)=1/sqrt(m[i]) where m[i] is the mass of the displaced atom
Thus, these vectors are normalized but *not* orthogonal

                  0          1          2          3          4          5    
      0       0.000000   0.000000   0.000000   0.000000   0.000000   0.000000
      1       0.000000   0.000000   0.000000   0.000000   0.000000   0.000000
      2       0.000000   0.000000   0.000000   0.000000   0.000000   0.000000
      3       0.000000   0.000000   0.000000   0.000000   0.000000   0.000000
      4       0.000000   0.000000   0.000000   0.000000   0.000000   0.000000
      5       0.000000   0.000000   0.000000   0.000000   0.000000   0.000000
      6       0.000000   0.000000   0.000000   0.000000   0.000000   0.000000
      7       0.000000   0.000000   0.000000   0.000000   0.000000   0.000000
      8       0.000000   0.000000   0.000000   0.000000   0.000000   0.000000
                   6          7          8    
      0       0.000000   0.000000   0.000000
      1       0.000000  -0.000003  -0.070412
      2       0.070957  -0.049525   0.000002
      3       0.000000   0.000000   0.000000
      4       0.424715   0.586791   0.558767
      5      -0.563116   0.393047   0.430422
      6       0.000000   0.000000   0.000000
      7      -0.424715  -0.586751   0.558811
      8      -0.563116   0.393015  -0.430451


-----------
IR SPECTRUM  
-----------

 Mode    freq (cm**-1)   T**2         TX         TY         TZ
-------------------------------------------------------------------
   6:      1634.11   75.434204  ( -0.000000   0.000003  -8.685287)
   7:      3811.88    5.350283  ( -0.000000   0.000307   2.313068)
   8:      3921.75   70.766829  ( -0.000000   8.412302  -0.000084)

The first frequency considered to be a vibration is 6
The total number of vibrations considered is 3


--------------------------
THERMOCHEMISTRY AT 298.15K
--------------------------

Temperature         ... 298.15 K
Pressure            ... 1.00 atm
Total Mass          ... 18.02 AMU

Throughout the following assumptions are being made:
  (1) The electronic state is orbitally nondegenerate
  (2) There are no thermally accessible electronically excited states
  (3) Hindered rotations indicated by low frequency modes are not
      treated as such but are treated as vibrations and this may
      cause some error
  (4) All equations used are the standard statistical mechanics
      equations for an ideal gas
  (5) All vibrations are strictly harmonic

freq.    1634.11  E(vib)   ...       0.00 
freq.    3811.88  E(vib)   ...       0.00 
freq.    3921.75  E(vib)   ...       0.00 

------------
INNER ENERGY
------------

The inner energy is: U= E(el) + E(ZPE) + E(vib) + E(rot) + E(trans)
    E(el)   - is the total energy from the electronic structure calculation
              = E(kin-el) + E(nuc-el) + E(el-el) + E(nuc-nuc)
    E(ZPE)  - the the zero temperature vibrational energy from the frequency calculation
    E(vib)  - the the finite temperature correction to E(ZPE) due to population
              of excited vibrational states
    E(rot)  - is the rotational thermal energy
    E(trans)- is the translational thermal energy

Summary of contributions to the inner energy U:
Electronic energy                ...    -76.41482641 Eh
Zero point energy                ...      0.02134129 Eh      13.39 kcal/mol
Thermal vibrational correction   ...      0.00000280 Eh       0.00 kcal/mol
Thermal rotational correction    ...      0.00141627 Eh       0.89 kcal/mol
Thermal translational correction ...      0.00141627 Eh       0.89 kcal/mol
-----------------------------------------------------------------------
Total thermal energy                    -76.39064978 Eh


Summary of corrections to the electronic energy:
(perhaps to be used in another calculation)
Total thermal correction                  0.00283534 Eh       1.78 kcal/mol
Non-thermal (ZPE) correction              0.02134129 Eh      13.39 kcal/mol
-----------------------------------------------------------------------
Total correction                          0.02417663 Eh      15.17 kcal/mol


--------
ENTHALPY
--------

The enthalpy is H = U + kB*T
                kB is Boltzmann's constant
Total free energy                 ...    -76.39064978 Eh 
Thermal Enthalpy correction       ...      0.00094421 Eh       0.59 kcal/mol
-----------------------------------------------------------------------
Total Enthalpy                    ...    -76.38970557 Eh


Note: Rotational entropy computed according to Herzberg 
Infrared and Raman Spectra, Chapter V,1, Van Nostrand Reinhold, 1945 
Point Group:  C2v, Symmetry Number:   2  
Rotational constants in cm-1:    27.390919    14.434035     9.452766 

Vibrational entropy computed according to the QRRHO of S. Grimme
Chem.Eur.J. 2012 18 9955


-------
ENTROPY
-------

The entropy contributions are T*S = T*(S(el)+S(vib)+S(rot)+S(trans))
     S(el)   - electronic entropy
     S(vib)  - vibrational entropy
     S(rot)  - rotational entropy
     S(trans)- translational entropy
The entropies will be listed as mutliplied by the temperature to get
units of energy

Electronic entropy                ...      0.00000000 Eh      0.00 kcal/mol
Vibrational entropy               ...      0.00000316 Eh      0.00 kcal/mol
Rotational entropy                ...      0.00497289 Eh      3.12 kcal/mol
Translational entropy             ...      0.01644380 Eh     10.32 kcal/mol
-----------------------------------------------------------------------
Final entropy term                ...      0.02141985 Eh     13.44 kcal/mol

In case the symmetry of your molecule has not been determined correctly
or in case you have a reason to use a different symmetry number we print 
out the resulting rotational entropy values for sn=1,12 :
 --------------------------------------------------------
|  sn= 1 | S(rot)=       0.00562734 Eh      3.53 kcal/mol|
|  sn= 2 | S(rot)=       0.00497289 Eh      3.12 kcal/mol|
|  sn= 3 | S(rot)=       0.00459005 Eh      2.88 kcal/mol|
|  sn= 4 | S(rot)=       0.00431843 Eh      2.71 kcal/mol|
|  sn= 5 | S(rot)=       0.00410774 Eh      2.58 kcal/mol|
|  sn= 6 | S(rot)=       0.00393560 Eh      2.47 kcal/mol|
|  sn= 7 | S(rot)=       0.00379005 Eh      2.38 kcal/mol|
|  sn= 8 | S(rot)=       0.00366397 Eh      2.30 kcal/mol|
|  sn= 9 | S(rot)=       0.00355277 Eh      2.23 kcal/mol|
|  sn=10 | S(rot)=       0.00345329 Eh      2.17 kcal/mol|
|  sn=11 | S(rot)=       0.00336330 Eh      2.11 kcal/mol|
|  sn=12 | S(rot)=       0.00328114 Eh      2.06 kcal/mol|
 --------------------------------------------------------


-------------------
GIBBS FREE ENERGY
-------------------

The Gibbs free energy is G = H - T*S

Total enthalpy                    ...    -76.38970557 Eh 
Total entropy correction          ...     -0.02141985 Eh    -13.44 kcal/mol
-----------------------------------------------------------------------
Final Gibbs free energy         ...    -76.41112542 Eh

For completeness - the Gibbs free energy minus the electronic energy
G-E(el)                           ...      0.00370099 Eh      2.32 kcal/mol


Total Time for Numerical Frequencies  :        23.776 sec

Timings for individual modules:

Sum of individual times         ...       75.671 sec (=   1.261 min)
GTO integral calculation        ...        8.737 sec (=   0.146 min)  11.5 %
SCF iterations                  ...       23.704 sec (=   0.395 min)  31.3 %
MP2 module                      ...       42.609 sec (=   0.710 min)  56.3 %
Geometry relaxation             ...        0.620 sec (=   0.010 min)   0.8 %
                             ****ORCA TERMINATED NORMALLY****
TOTAL RUN TIME: 0 days 0 hours 1 minutes 37 seconds 217 msec
