
                                 *****************
                                 * O   R   C   A *
                                 *****************

           --- An Ab Initio, DFT and Semiempirical electronic structure package ---

                  #######################################################
                  #                        -***-                        #
                  #          Department of theory and spectroscopy      #
                  #               Directorship: Frank Neese             #
                  #        Max Planck Institute fuer Kohlenforschung    #
                  #                Kaiser Wilhelm Platz 1               #
                  #                 D-45470 Muelheim/Ruhr               #
                  #                      Germany                        #
                  #                                                     #
                  #                  All rights reserved                #
                  #                        -***-                        #
                  #######################################################


                         Program Version 4.2.0 -  RELEASE  -


 With contributions from (in alphabetic order):
   Daniel Aravena         : Magnetic Suceptibility
   Michael Atanasov       : Ab Initio Ligand Field Theory (pilot matlab implementation)
   Alexander A. Auer      : GIAO ZORA, VPT2
   Ute Becker             : Parallelization
   Giovanni Bistoni       : ED, misc. LED, open-shell LED, HFLED
   Martin Brehm           : Molecular dynamics
   Dmytro Bykov           : SCF Hessian
   Vijay G. Chilkuri      : MRCI spin determinant printing, contributions to CSF-ICE
   Dipayan Datta          : RHF DLPNO-CCSD density
   Achintya Kumar Dutta   : EOM-CC, STEOM-CC
   Dmitry Ganyushin       : Spin-Orbit,Spin-Spin,Magnetic field MRCI
   Miquel Garcia          : C-PCM Hessian, Gaussian charge scheme
   Yang Guo               : DLPNO-NEVPT2, CIM, IAO-localization
   Andreas Hansen         : Spin unrestricted coupled pair/coupled cluster methods
   Benjamin Helmich-Paris : CASSCF linear response (MC-RPA)
   Lee Huntington         : MR-EOM, pCC
   Robert Izsak           : Overlap fitted RIJCOSX, COSX-SCS-MP3, EOM
   Christian Kollmar      : KDIIS, OOCD, Brueckner-CCSD(T), CCSD density
   Simone Kossmann        : Meta GGA functionals, TD-DFT gradient, OOMP2, MP2 Hessian
   Martin Krupicka        : AUTO-CI
   Lucas Lang             : DCDCAS
   Dagmar Lenk            : GEPOL surface, SMD
   Dimitrios Liakos       : Extrapolation schemes; Compound Job, initial MDCI parallelization
   Dimitrios Manganas     : Further ROCIS development; embedding schemes
   Dimitrios Pantazis     : SARC Basis sets
   Taras Petrenko         : DFT Hessian,TD-DFT gradient, ASA, ECA, R-Raman, ABS, FL, XAS/XES, NRVS
   Peter Pinski           : DLPNO-MP2, DLPNO-MP2 Gradient
   Christoph Reimann      : Effective Core Potentials
   Marius Retegan         : Local ZFS, SOC
   Christoph Riplinger    : Optimizer, TS searches, QM/MM, DLPNO-CCSD(T), (RO)-DLPNO pert. Triples
   Tobias Risthaus        : Range-separated hybrids, TD-DFT gradient, RPA, STAB
   Michael Roemelt        : Original ROCIS implementation
   Masaaki Saitow         : Open-shell DLPNO-CCSD energy and density
   Barbara Sandhoefer     : DKH picture change effects
   Avijit Sen             : IP-ROCIS
   Kantharuban Sivalingam : CASSCF convergence, NEVPT2, FIC-MRCI
   Bernardo de Souza      : ESD, SOC TD-DFT
   Georgi Stoychev        : AutoAux, RI-MP2 NMR
   Willem Van den Heuvel  : Paramagnetic NMR
   Boris Wezisla          : Elementary symmetry handling
   Frank Wennmohs         : Technical directorship


 We gratefully acknowledge several colleagues who have allowed us to
 interface, adapt or use parts of their codes:
   Stefan Grimme, W. Hujo, H. Kruse,             : VdW corrections, initial TS optimization,
                  C. Bannwarth                     DFT functionals, gCP, sTDA/sTD-DF
   Ed Valeev, F. Pavosevic, A. Kumar             : LibInt (2-el integral package), F12 methods
   Garnet Chan, S. Sharma, J. Yang, R. Olivares  : DMRG
   Ulf Ekstrom                                   : XCFun DFT Library
   Mihaly Kallay                                 : mrcc  (arbitrary order and MRCC methods)
   Andreas Klamt, Michael Diedenhofen            : otool_cosmo (COSMO solvation model)
   Jiri Pittner, Ondrej Demel                    : Mk-CCSD
   Frank Weinhold                                : gennbo (NPA and NBO analysis)
   Christopher J. Cramer and Donald G. Truhlar   : smd solvation model
   Lars Goerigk                                  : TD-DFT with DH, B97 family of functionals
   V. Asgeirsson, H. Jonsson                     : NEB implementation
   FAccTs GmbH                                   : IRC, NEB, NEB-TS, Multilevel, MM, QM/MM, CI optimization
   S Lehtola, MJT Oliveira, MAL Marques          : LibXC Library


 Your calculation uses the libint2 library for the computation of 2-el integrals
 For citations please refer to: http://libint.valeyev.net

 Your ORCA version has been built with support for libXC version: 4.2.3
 For citations please refer to: https://tddft.org/programs/libxc/

 This ORCA versions uses:
   CBLAS   interface :  Fast vector & matrix operations
   LAPACKE interface :  Fast linear algebra routines
   SCALAPACK package :  Parallel linear algebra routines


Your calculation utilizes the atom-pairwise dispersion correction
with the Becke-Johnson damping scheme (D3BJ)
Cite in your paper:
S.Grimme, S.Ehrlich, L.Goerigk, J Comput Chem, (2011), 32, 1456–1465 
S.Grimme, J.Antony, S.Ehrlich and H.Krieg, J.Chem.Phys., 132, (2010), 154104 
   

----- Orbital basis set information -----
Your calculation utilizes the basis: aug-cc-pV(T+d)Z 
             Al - Ar: T.H. Dunning, Jr., K. A. Peterson and A. K. Wilson, J. Chem. Phys.
                      114, 9244 (2001)

----- AuxC basis set information -----
Your calculation utilizes the auxiliary basis: def2-TZVP/C
  H-La, Hf-Rn : A. Hellweg, C. Hattig, S. Hofener and W. Klopper, Theor. Chem. Acc. 117, 587 (2007).
        Ce-Lu : J. Chmela and M. E. Harding, Mol. Phys. (2018).

----- AuxJK basis set information -----
Your calculation utilizes the auxiliary basis: def2/JK
   H-Ba, Hf-Rn: F. Weigend, J. Comput. Chem. 29, 167 (2008).

================================================================================
                                        WARNINGS
                       Please study these warnings very carefully!
================================================================================


WARNING: The frozen-core approximation for MP2-gradient calculations is turned on by default.

WARNING: Geometry Optimization
  ===> : Switching off AutoStart
         For restart on a previous wavefunction, please use MOREAD

WARNING: The frozen-core approximation is turned on by default for 
         the MP2 part of double-hybrid DFT.

INFO   : the flag for use of LIBINT has been found!

================================================================================
                                       INPUT FILE
================================================================================
NAME = 02_H2O_2.in
|  1> #
|  2> # 02_H2O_2 b2-plyp/aug-cc-pvt(+d)z
|  3> #
|  4> ! rijk ri-b2plyp d3bj aug-cc-pvt(+d)z def2/jk def2-tzvp/c grid4 nofinalgrid opt xyzfile numfreq
|  5> 
|  6> *xyz 0 1
|  7> O	0.12629641	2.81863838	0
|  8> H	-1.55012056	3.50228598	0
|  9> H	-0.11213325	1.01044862	0
| 10> O	-0.11743248	-2.68035303	0
| 11> H	0.7607884	-3.35371171	-1.4365769
| 12> H	0.7607884	-3.35371171	1.4365769
| 13> *
| 14> 
| 15> %maxcore 5000
| 16> 
| 17> %pal
| 18> nprocs 24
| 19> end
| 20> 
| 21> 
| 22>                          ****END OF INPUT****
================================================================================

                       *****************************
                       * Geometry Optimization Run *
                       *****************************

Geometry optimization settings:
Update method            Update   .... BFGS
Choice of coordinates    CoordSys .... Z-matrix Internals
Initial Hessian          InHess   .... Almoef's Model

Convergence Tolerances:
Energy Change            TolE     ....  5.0000e-06 Eh
Max. Gradient            TolMAXG  ....  3.0000e-04 Eh/bohr
RMS Gradient             TolRMSG  ....  1.0000e-04 Eh/bohr
Max. Displacement        TolMAXD  ....  4.0000e-03 bohr
RMS Displacement         TolRMSD  ....  2.0000e-03 bohr
Strict Convergence                ....  False
------------------------------------------------------------------------------
                        ORCA OPTIMIZATION COORDINATE SETUP
------------------------------------------------------------------------------

The optimization will be done in new redundant internal coordinates
Making redundant internal coordinates   ...  (new redundants) done
Evaluating the initial hessian          ...  (Almloef) done
Evaluating the coordinates              ...  done
Calculating the B-matrix                .... done
Calculating the G-matrix                .... done
Diagonalizing the G-matrix              .... done
The first mode is                       ....    1
The number of degrees of freedom        ....   12

    -----------------------------------------------------------------
                    Redundant Internal Coordinates


    -----------------------------------------------------------------
         Definition                    Initial Value    Approx d2E/dq
    -----------------------------------------------------------------
      1. B(H   1,O   0)                  1.8105         0.022862   
      2. B(H   2,O   0)                  1.8238         0.021765   
      3. B(O   3,H   2)                  3.6908         0.000023   
      4. B(H   4,O   3)                  1.8134         0.022616   
      5. B(H   5,O   3)                  1.8134         0.022616   
      6. A(H   1,O   0,H   2)          104.6740         0.144976   
      7. A(O   0,H   2,O   3)          172.5705         0.100722   
      8. A(H   2,O   3,H   4)          111.7543         0.100824   
      9. A(H   4,O   3,H   5)          104.7829         0.145326   
     10. A(H   2,O   3,H   5)          111.7543         0.100824   
     11. D(O   3,H   2,O   0,H   1)    180.0000         0.001722   
     12. D(H   5,O   3,H   2,O   0)     58.5333         0.001500   
     13. D(H   4,O   3,H   2,O   0)    -58.5333         0.001500   
    -----------------------------------------------------------------

Number of atoms                         .... 6
Number of degrees of freedom            .... 13

         *************************************************************
         *                GEOMETRY OPTIMIZATION CYCLE   1            *
         *************************************************************
---------------------------------
CARTESIAN COORDINATES (ANGSTROEM)
---------------------------------
  O      0.126296    2.818638    0.000000
  H     -1.550121    3.502286    0.000000
  H     -0.112133    1.010449    0.000000
  O     -0.117432   -2.680353    0.000000
  H      0.760788   -3.353712   -1.436577
  H      0.760788   -3.353712    1.436577

----------------------------
CARTESIAN COORDINATES (A.U.)
----------------------------
  NO LB      ZA    FRAG     MASS         X           Y           Z
   0 O     8.0000    0    15.999    0.238666    5.326455    0.000000
   1 H     1.0000    0     1.008   -2.929303    6.618361    0.000000
   2 H     1.0000    0     1.008   -0.211901    1.909471    0.000000
   3 O     8.0000    0    15.999   -0.221915   -5.065133    0.000000
   4 H     1.0000    0     1.008    1.437682   -6.337597   -2.714737
   5 H     1.0000    0     1.008    1.437682   -6.337597    2.714737

--------------------------------
INTERNAL COORDINATES (ANGSTROEM)
--------------------------------
 O      0   0   0     0.000000000000     0.00000000     0.00000000
 H      1   0   0     1.810455163292     0.00000000     0.00000000
 H      1   2   0     1.823841799865   104.67403357     0.00000000
 O      3   1   2     3.690805454299   172.57052396   180.00000000
 H      4   3   1     1.813404812945   111.75429995   301.46668203
 H      4   3   1     1.813404812945   111.75429995    58.53331797

---------------------------
INTERNAL COORDINATES (A.U.)
---------------------------
 O      0   0   0     0.000000000000     0.00000000     0.00000000
 H      1   0   0     3.421264436365     0.00000000     0.00000000
 H      1   2   0     3.446561513344   104.67403357     0.00000000
 O      3   1   2     6.974611522207   172.57052396   180.00000000
 H      4   3   1     3.426838466401   111.75429995   301.46668203
 H      4   3   1     3.426838466401   111.75429995    58.53331797

---------------------
BASIS SET INFORMATION
---------------------
There are 2 groups of distinct atoms

 Group   1 Type O   : 19s6p3d2f contracted to 5s4p3d2f pattern {88111/3111/111/11}
 Group   2 Type H   : 6s3p2d contracted to 4s3p2d pattern {3111/111/11}

Atom   0O    basis set group =>   1
Atom   1H    basis set group =>   2
Atom   2H    basis set group =>   2
Atom   3O    basis set group =>   1
Atom   4H    basis set group =>   2
Atom   5H    basis set group =>   2
---------------------------------
AUXILIARY/C BASIS SET INFORMATION
---------------------------------
There are 2 groups of distinct atoms

 Group   1 Type O   : 8s6p5d3f1g contracted to 8s6p4d3f1g pattern {11111111/111111/2111/111/1}
 Group   2 Type H   : 4s3p2d contracted to 4s2p1d pattern {1111/21/2}

Atom   0O    basis set group =>   1
Atom   1H    basis set group =>   2
Atom   2H    basis set group =>   2
Atom   3O    basis set group =>   1
Atom   4H    basis set group =>   2
Atom   5H    basis set group =>   2
----------------------------------
AUXILIARY/JK BASIS SET INFORMATION
----------------------------------
There are 2 groups of distinct atoms

 Group   1 Type O   : 14s10p6d2f1g contracted to 10s8p4d2f1g pattern {5111111111/31111111/3111/11/1}
 Group   2 Type H   : 4s2p2d contracted to 2s2p2d pattern {31/11/11}

Atom   0O    basis set group =>   1
Atom   1H    basis set group =>   2
Atom   2H    basis set group =>   2
Atom   3O    basis set group =>   1
Atom   4H    basis set group =>   2
Atom   5H    basis set group =>   2


           ************************************************************
           *        Program running with 24 parallel MPI-processes    *
           *              working on a common directory               *
           ************************************************************
------------------------------------------------------------------------------
                           ORCA GTO INTEGRAL CALCULATION
                           -- RI-GTO INTEGRALS CHOSEN --
------------------------------------------------------------------------------

                         BASIS SET STATISTICS AND STARTUP INFO

Gaussian basis set:
 # of primitive gaussian shells          ...  104
 # of primitive gaussian functions       ...  232
 # of contracted shells                  ...   64
 # of contracted basis functions         ...  184
 Highest angular momentum                ...    3
 Maximum contraction depth               ...    8
Auxiliary gaussian basis set:
 # of primitive gaussian shells          ...   98
 # of primitive gaussian functions       ...  274
 # of contracted shells                  ...   74
 # of contracted aux-basis functions     ...  226
 Highest angular momentum                ...    4
 Maximum contraction depth               ...    5
Ratio of auxiliary to basis functions    ...  1.23
Integral package used                  ... LIBINT
 One Electron integrals                  ... done
 Ordering auxiliary basis shells         ... done
 Integral threshhold             Thresh  ...  2.500e-11
 Primitive cut-off               TCut    ...  2.500e-12
 Pre-screening matrix                    ... done
 Shell pair data                         ... 
 Ordering of the shell pairs             ... done (   0.000 sec) 1773 of 2080 pairs
 Determination of significant pairs      ... done (   0.000 sec)
 Creation of shell pair data             ... done (   0.000 sec)
 Storage of shell pair data              ... done (   0.026 sec)
 Shell pair data done in (   0.027 sec)
 Computing two index integrals           ... done
 Cholesky decomposition of the V-matrix  ... done


Timings:
 Total evaluation time                   ...   0.240 sec (  0.004 min)
 One electron matrix time                ...   0.018 sec (  0.000 min) =  7.3%
 Schwartz matrix evaluation time         ...   0.100 sec (  0.002 min) = 41.5%
 Two index repulsion integral time       ...   0.001 sec (  0.000 min) =  0.4%
 Cholesky decomposition of V             ...   0.071 sec (  0.001 min) = 29.6%
 Three index repulsion integral time     ...   0.000 sec (  0.000 min) =  0.0%



           ************************************************************
           *        Program running with 24 parallel MPI-processes    *
           *              working on a common directory               *
           ************************************************************
-------------------------------------------------------------------------------
                                 ORCA SCF
-------------------------------------------------------------------------------

------------
SCF SETTINGS
------------
Hamiltonian:
 Density Functional     Method          .... DFT(GTOs)
 Exchange Functional    Exchange        .... B88
   X-Alpha parameter    XAlpha          ....  0.666667
   Becke's b parameter  XBeta           ....  0.004200
 Correlation Functional Correlation     .... LYP
 LDA part of GGA corr.  LDAOpt          .... VWN-3
 Gradients option       PostSCFGGA      .... off
 Hybrid DFT is turned on
   Fraction HF Exchange ScalHFX         ....  0.530000
   Scaling of DF-GGA-X  ScalDFX         ....  0.470000
   Scaling of DF-GGA-C  ScalDFC         ....  0.730000
   Scaling of DF-LDA-C  ScalLDAC        ....  0.730000
   Perturbative correction              ....  0.270000
   Density functional embedding theory  .... OFF
 RI-approximation to the Coulomb term is turned on
   Number of auxiliary basis functions  .... 226
   RI-JK (J+K treated both via RI)      .... on


General Settings:
 Integral files         IntName         .... 02_H2O_2
 Hartree-Fock type      HFTyp           .... RHF
 Total Charge           Charge          ....    0
 Multiplicity           Mult            ....    1
 Number of Electrons    NEL             ....   20
 Basis Dimension        Dim             ....  184
 Nuclear Repulsion      ENuc            ....     19.3626333336 Eh

Convergence Acceleration:
 DIIS                   CNVDIIS         .... on
   Start iteration      DIISMaxIt       ....    12
   Startup error        DIISStart       ....  0.200000
   # of expansion vecs  DIISMaxEq       ....     5
   Bias factor          DIISBfac        ....   1.050
   Max. coefficient     DIISMaxC        ....  10.000
 Newton-Raphson         CNVNR           .... off
 SOSCF                  CNVSOSCF        .... on
   Start iteration      SOSCFMaxIt      ....   150
   Startup grad/error   SOSCFStart      ....  0.003300
 Level Shifting         CNVShift        .... on
   Level shift para.    LevelShift      ....    0.2500
   Turn off err/grad.   ShiftErr        ....    0.0010
 Zerner damping         CNVZerner       .... off
 Static damping         CNVDamp         .... on
   Fraction old density DampFac         ....    0.7000
   Max. Damping (<1)    DampMax         ....    0.9800
   Min. Damping (>=0)   DampMin         ....    0.0000
   Turn off err/grad.   DampErr         ....    0.1000
 Fernandez-Rico         CNVRico         .... off

SCF Procedure:
 Maximum # iterations   MaxIter         ....   125
 SCF integral mode      SCFMode         .... Direct
   Integral package                     .... LIBINT
 Reset frequency        DirectResetFreq ....    20
 Integral Threshold     Thresh          ....  2.500e-11 Eh
 Primitive CutOff       TCut            ....  2.500e-12 Eh

Convergence Tolerance:
 Convergence Check Mode ConvCheckMode   .... Total+1el-Energy
 Convergence forced     ConvForced      .... 0
 Energy Change          TolE            ....  1.000e-08 Eh
 1-El. energy change                    ....  1.000e-05 Eh
 Orbital Gradient       TolG            ....  1.000e-05
 Orbital Rotation angle TolX            ....  1.000e-05
 DIIS Error             TolErr          ....  5.000e-07


Diagonalization of the overlap matrix:
Smallest eigenvalue                        ... 2.067e-03
Time for diagonalization                   ...    0.025 sec
Threshold for overlap eigenvalues          ... 1.000e-08
Number of eigenvalues below threshold      ... 0
Time for construction of square roots      ...    0.003 sec
Total time needed                          ...    0.028 sec

-------------------
DFT GRID GENERATION
-------------------

General Integration Accuracy     IntAcc      ...  4.670
Radial Grid Type                 RadialGrid  ... Gauss-Chebyshev
Angular Grid (max. acc.)         AngularGrid ... Lebedev-302
Angular grid pruning method      GridPruning ... 3 (G Style)
Weight generation scheme         WeightScheme... Becke
Basis function cutoff            BFCut       ...    1.0000e-11
Integration weight cutoff        WCut        ...    1.0000e-14
Grids for H and He will be reduced by one unit

# of grid points (after initial pruning)     ...  26000 (   0.0 sec)
# of grid points (after weights+screening)   ...  25747 (   0.0 sec)
nearest neighbour list constructed           ...    0.0 sec
Grid point re-assignment to atoms done       ...    0.0 sec
Grid point division into batches done        ...    0.1 sec
Reduced shell lists constructed in    0.1 sec

Total number of grid points                  ...    25747
Total number of batches                      ...      405
Average number of points per batch           ...       63
Average number of grid points per atom       ...     4291
Average number of shells per batch           ...    26.33 (41.15%)
Average number of basis functions per batch  ...    67.33 (36.59%)
Average number of large shells per batch     ...    19.17 (72.78%)
Average number of large basis fcns per batch ...    46.83 (69.55%)
Average number of aux-shells per batch       ...    26.33 (35.59%)
Average number of aux functions per batch    ...    67.33 (29.79%)
Maximum spatial batch extension              ...  12.44, 14.34, 16.88 au
Average spatial batch extension              ...   0.31,  0.35,  0.36 au

Time for grid setup =    0.145 sec

------------------------------
INITIAL GUESS: MODEL POTENTIAL
------------------------------
Loading Hartree-Fock densities                     ... done
Calculating cut-offs                               ... done
Setting up the integral package                    ... done
Initializing the effective Hamiltonian             ... done
Starting the Coulomb interaction                   ... done (   0.0 sec)
Reading the grid                                   ... done
Mapping shells                                     ... done
Starting the XC term evaluation                    ... done (   0.0 sec)
  promolecular density results
     # of electrons  =     19.998065321
     EX              =    -17.201078578
     EC              =     -0.179966176
     EX+EC           =    -17.381044754
Transforming the Hamiltonian                       ... done (   0.0 sec)
Diagonalizing the Hamiltonian                      ... done (   0.0 sec)
Back transforming the eigenvectors                 ... done (   0.0 sec)
Now organizing SCF variables                       ... done
                      ------------------
                      INITIAL GUESS DONE (   0.2 sec)
                      ------------------
--------------
SCF ITERATIONS
--------------
ITER       Energy         Delta-E        Max-DP      RMS-DP      [F,P]     Damp
  0   -151.4933143461   0.000000000000 0.06394068  0.00176570  0.4665981 0.7000
  1   -151.2623108323   0.231003513822 0.06228930  0.00165295  0.3026779 0.7000
                               ***Turning on DIIS***
  2   -151.3537275414  -0.091416709082 0.03188461  0.00088966  0.1425719 0.7000
  3   -151.5957326758  -0.242005134455 0.02136698  0.00051866  0.2877608 0.7000
  4   -151.6861259519  -0.090393276088 0.01407740  0.00029817  0.2870232 0.7000
  5   -151.7474560125  -0.061330060619 0.00675132  0.00019659  0.2486398 0.7000
  6   -151.7927744878  -0.045318475293 0.00776141  0.00017774  0.2336617 0.7000
  7   -151.8280965505  -0.035322062677 0.01935362  0.00049571  0.2223332 0.7000
  8   -151.9637777998  -0.135681249315 0.02747534  0.00067794  0.1914370 0.7000
  9   -152.0115227862  -0.047744986365 0.02141784  0.00054753  0.1201861 0.7000
 10   -151.9785510306   0.032971755543 0.02972282  0.00079557  0.0362406 0.0000
 11   -151.9351032873   0.043447743362 0.01084550  0.00033305  0.0945973 0.0000
 12   -151.9504147970  -0.015311509754 0.00566556  0.00018297  0.0626385 0.0000
 13   -151.9561938839  -0.005779086913 0.00363682  0.00011498  0.0452811 0.0000
 14   -151.9589265257  -0.002732641769 0.00398392  0.00009693  0.0338880 0.0000
 15   -151.9608642210  -0.001937695260 0.00503766  0.00014786  0.0204611 0.0000
 16   -151.9619981909  -0.001133969961 0.00182956  0.00005947  0.0094661 0.0000
 17   -151.9622407423  -0.000242551367 0.00113810  0.00002917  0.0047483 0.0000
                      *** Initiating the SOSCF procedure ***
                           *** Shutting down DIIS ***
                      *** Re-Reading the Fockian *** 
                      *** Removing any level shift *** 
ITER      Energy       Delta-E        Grad      Rot      Max-DP    RMS-DP
 18   -151.96229520  -0.0000544529  0.000840  0.000840  0.000543  0.000016
 19   -151.96230842  -0.0000132261  0.000934  0.003435  0.001441  0.000027
 20   -151.96229449   0.0000139342  0.001841  0.001558  0.000897  0.000017
 21   -151.96231507  -0.0000205860  0.000155  0.000526  0.000253  0.000006
 22   -151.96231585  -0.0000007805  0.000114  0.001177  0.000407  0.000011
 23   -151.96231561   0.0000002388  0.000301  0.000479  0.000168  0.000004
 24   -151.96231625  -0.0000006346  0.000043  0.000129  0.000059  0.000001
 25   -151.96231626  -0.0000000142  0.000005  0.000028  0.000012  0.000000
                 **** Energy Check signals convergence ****
              ***Rediagonalizing the Fockian in SOSCF/NRSCF***

               *****************************************************
               *                     SUCCESS                       *
               *           SCF CONVERGED AFTER  26 CYCLES          *
               *****************************************************


----------------
TOTAL SCF ENERGY
----------------

Total Energy       :         -151.96231626 Eh           -4135.10485 eV

Components:
Nuclear Repulsion  :           19.36263333 Eh             526.88404 eV
Electronic Energy  :         -171.32494960 Eh           -4661.98889 eV
One Electron Energy:         -248.51156958 Eh           -6762.34360 eV
Two Electron Energy:           77.18661998 Eh            2100.35471 eV

Virial components:
Potential Energy   :         -302.07559083 Eh           -8219.89472 eV
Kinetic Energy     :          150.11327456 Eh            4084.78987 eV
Virial Ratio       :            2.01231764


DFT components:
N(Alpha)           :        9.999999397048 electrons
N(Beta)            :        9.999999397048 electrons
N(Total)           :       19.999998794097 electrons
E(X)               :       -8.074404498181 Eh       
E(C)               :       -0.465347021266 Eh       
E(XC)              :       -8.539751519447 Eh       
DFET-embed. en.    :        0.000000000000 Eh       

---------------
SCF CONVERGENCE
---------------

  Last Energy change         ...   -8.6337e-10  Tolerance :   1.0000e-08
  Last MAX-Density change    ...    1.0414e-06  Tolerance :   1.0000e-07
  Last RMS-Density change    ...    3.0342e-08  Tolerance :   5.0000e-09
  Last Orbital Gradient      ...    8.0097e-07  Tolerance :   1.0000e-05
  Last Orbital Rotation      ...    2.0453e-06  Tolerance :   1.0000e-05

             **** THE GBW FILE WAS UPDATED (02_H2O_2.gbw) ****
             **** DENSITY FILE WAS UPDATED (02_H2O_2.scfp) ****
             **** ENERGY FILE WAS UPDATED (02_H2O_2.en.tmp) ****
             **** THE GBW FILE WAS UPDATED (02_H2O_2.gbw) ****
             **** DENSITY FILE WAS UPDATED (02_H2O_2.scfp) ****
----------------
ORBITAL ENERGIES
----------------

  NO   OCC          E(Eh)            E(eV) 
   0   2.0000     -19.818486      -539.2884 
   1   2.0000     -19.802814      -538.8620 
   2   2.0000      -1.027189       -27.9512 
   3   2.0000      -1.011136       -27.5144 
   4   2.0000      -0.407498       -11.0886 
   5   2.0000      -0.394773       -10.7423 
   6   2.0000      -0.390816       -10.6346 
   7   2.0000      -0.389086       -10.5876 
   8   2.0000      -0.378072       -10.2879 
   9   2.0000      -0.372739       -10.1427 
  10   0.0000      -0.118403        -3.2219 
  11   0.0000      -0.101056        -2.7499 
  12   0.0000      -0.085278        -2.3205 
  13   0.0000      -0.069220        -1.8836 
  14   0.0000       0.043058         1.1717 
  15   0.0000       0.045161         1.2289 
  16   0.0000       0.051972         1.4142 
  17   0.0000       0.065784         1.7901 
  18   0.0000       0.105440         2.8692 
  19   0.0000       0.128262         3.4902 
  20   0.0000       0.130885         3.5616 
  21   0.0000       0.142228         3.8702 
  22   0.0000       0.158348         4.3089 
  23   0.0000       0.168504         4.5852 
  24   0.0000       0.178882         4.8676 
  25   0.0000       0.184925         5.0321 
  26   0.0000       0.200939         5.4678 
  27   0.0000       0.212418         5.7802 
  28   0.0000       0.230446         6.2708 
  29   0.0000       0.237765         6.4699 
  30   0.0000       0.239383         6.5140 
  31   0.0000       0.262319         7.1381 
  32   0.0000       0.267432         7.2772 
  33   0.0000       0.270480         7.3601 
  34   0.0000       0.280731         7.6391 
  35   0.0000       0.291059         7.9201 
  36   0.0000       0.303479         8.2581 
  37   0.0000       0.396977        10.8023 
  38   0.0000       0.480983        13.0882 
  39   0.0000       0.513778        13.9806 
  40   0.0000       0.518457        14.1079 
  41   0.0000       0.534311        14.5393 
  42   0.0000       0.618574        16.8322 
  43   0.0000       0.622853        16.9487 
  44   0.0000       0.637971        17.3601 
  45   0.0000       0.647428        17.6174 
  46   0.0000       0.655571        17.8390 
  47   0.0000       0.664454        18.0807 
  48   0.0000       0.676318        18.4036 
  49   0.0000       0.687551        18.7092 
  50   0.0000       0.688763        18.7422 
  51   0.0000       0.708396        19.2764 
  52   0.0000       0.743423        20.2296 
  53   0.0000       0.758557        20.6414 
  54   0.0000       0.775984        21.1156 
  55   0.0000       0.787576        21.4310 
  56   0.0000       0.799917        21.7669 
  57   0.0000       0.801454        21.8087 
  58   0.0000       0.803874        21.8745 
  59   0.0000       0.808553        22.0018 
  60   0.0000       0.809972        22.0405 
  61   0.0000       0.820903        22.3379 
  62   0.0000       0.850436        23.1415 
  63   0.0000       0.861860        23.4524 
  64   0.0000       0.872045        23.7296 
  65   0.0000       0.899057        24.4646 
  66   0.0000       0.904630        24.6162 
  67   0.0000       0.908945        24.7336 
  68   0.0000       0.918560        24.9953 
  69   0.0000       0.928941        25.2778 
  70   0.0000       0.932856        25.3843 
  71   0.0000       0.951359        25.8878 
  72   0.0000       0.960467        26.1356 
  73   0.0000       0.985573        26.8188 
  74   0.0000       1.011383        27.5211 
  75   0.0000       1.034524        28.1508 
  76   0.0000       1.043276        28.3890 
  77   0.0000       1.046107        28.4660 
  78   0.0000       1.058569        28.8051 
  79   0.0000       1.082439        29.4547 
  80   0.0000       1.089031        29.6340 
  81   0.0000       1.123605        30.5749 
  82   0.0000       1.152182        31.3525 
  83   0.0000       1.159071        31.5399 
  84   0.0000       1.178925        32.0802 
  85   0.0000       1.181183        32.1416 
  86   0.0000       1.290069        35.1046 
  87   0.0000       1.314771        35.7767 
  88   0.0000       1.544228        42.0206 
  89   0.0000       1.559194        42.4278 
  90   0.0000       1.814860        49.3849 
  91   0.0000       1.837299        49.9955 
  92   0.0000       2.005768        54.5797 
  93   0.0000       2.011997        54.7492 
  94   0.0000       2.015097        54.8336 
  95   0.0000       2.032802        55.3154 
  96   0.0000       2.039992        55.5110 
  97   0.0000       2.064898        56.1887 
  98   0.0000       2.079274        56.5799 
  99   0.0000       2.094398        56.9915 
 100   0.0000       2.105416        57.2913 
 101   0.0000       2.127037        57.8796 
 102   0.0000       2.129981        57.9597 
 103   0.0000       2.168255        59.0012 
 104   0.0000       2.177683        59.2578 
 105   0.0000       2.189262        59.5728 
 106   0.0000       2.194818        59.7240 
 107   0.0000       2.204374        59.9841 
 108   0.0000       2.246493        61.1302 
 109   0.0000       2.256295        61.3969 
 110   0.0000       2.306029        62.7502 
 111   0.0000       2.327055        63.3224 
 112   0.0000       2.357894        64.1616 
 113   0.0000       2.373799        64.5943 
 114   0.0000       2.386498        64.9399 
 115   0.0000       2.402323        65.3705 
 116   0.0000       2.851200        77.5851 
 117   0.0000       2.866893        78.0121 
 118   0.0000       2.871470        78.1367 
 119   0.0000       2.885764        78.5256 
 120   0.0000       3.640836        99.0722 
 121   0.0000       3.656093        99.4873 
 122   0.0000       3.661912        99.6457 
 123   0.0000       3.678773       100.1045 
 124   0.0000       3.689783       100.4041 
 125   0.0000       3.692445       100.4765 
 126   0.0000       3.705791       100.8397 
 127   0.0000       3.709145       100.9310 
 128   0.0000       3.716308       101.1259 
 129   0.0000       3.734869       101.6309 
 130   0.0000       3.753711       102.1437 
 131   0.0000       3.758876       102.2842 
 132   0.0000       3.781221       102.8923 
 133   0.0000       3.799271       103.3834 
 134   0.0000       3.833062       104.3029 
 135   0.0000       3.852740       104.8384 
 136   0.0000       3.900500       106.1380 
 137   0.0000       3.901218       106.1575 
 138   0.0000       3.910067       106.3983 
 139   0.0000       3.917380       106.5973 
 140   0.0000       3.931583       106.9838 
 141   0.0000       3.939244       107.1923 
 142   0.0000       3.952109       107.5424 
 143   0.0000       3.979594       108.2903 
 144   0.0000       4.020440       109.4017 
 145   0.0000       4.021878       109.4409 
 146   0.0000       4.085926       111.1837 
 147   0.0000       4.088693       111.2590 
 148   0.0000       4.108593       111.8005 
 149   0.0000       4.135663       112.5371 
 150   0.0000       4.146589       112.8344 
 151   0.0000       4.149400       112.9109 
 152   0.0000       4.262815       115.9971 
 153   0.0000       4.314827       117.4124 
 154   0.0000       4.434829       120.6778 
 155   0.0000       4.471206       121.6677 
 156   0.0000       4.516733       122.9066 
 157   0.0000       4.531325       123.3036 
 158   0.0000       6.267456       170.5461 
 159   0.0000       6.280822       170.9098 
 160   0.0000       6.304755       171.5611 
 161   0.0000       6.318987       171.9484 
 162   0.0000       6.375836       173.4953 
 163   0.0000       6.376596       173.5160 
 164   0.0000       6.389201       173.8590 
 165   0.0000       6.391569       173.9234 
 166   0.0000       6.410694       174.4439 
 167   0.0000       6.425458       174.8456 
 168   0.0000       6.527588       177.6247 
 169   0.0000       6.548442       178.1922 
 170   0.0000       6.581413       179.0893 
 171   0.0000       6.598305       179.5490 
 172   0.0000       6.771054       184.2497 
 173   0.0000       6.775302       184.3653 
 174   0.0000       6.777257       184.4185 
 175   0.0000       6.787717       184.7032 
 176   0.0000       6.789650       184.7558 
 177   0.0000       6.800845       185.0604 
 178   0.0000       6.858406       186.6267 
 179   0.0000       6.873022       187.0244 
 180   0.0000       7.023511       191.1195 
 181   0.0000       7.036675       191.4777 
 182   0.0000      10.026782       272.8426 
 183   0.0000      10.064588       273.8713 

                    ********************************
                    * MULLIKEN POPULATION ANALYSIS *
                    ********************************

-----------------------
MULLIKEN ATOMIC CHARGES
-----------------------
   0 O :   -0.511565
   1 H :    0.238210
   2 H :    0.270961
   3 O :   -0.503025
   4 H :    0.252709
   5 H :    0.252710
Sum of atomic charges:   -0.0000000

--------------------------------
MULLIKEN REDUCED ORBITAL CHARGES
--------------------------------
  0 O s       :     3.981058  s :     3.981058
      pz      :     1.984985  p :     4.512701
      px      :     1.255099
      py      :     1.272617
      dz2     :     0.003585  d :     0.016390
      dxz     :     0.000226
      dyz     :     0.000075
      dx2y2   :     0.009655
      dxy     :     0.002849
      f0      :     0.000110  f :     0.001416
      f+1     :     0.000414
      f-1     :     0.000512
      f+2     :     0.000001
      f-2     :     0.000003
      f+3     :     0.000043
      f-3     :     0.000334
  1 H s       :     0.741342  s :     0.741342
      pz      :     0.006170  p :     0.017871
      px      :     0.004612
      py      :     0.007089
      dz2     :     0.000282  d :     0.002577
      dxz     :     0.001053
      dyz     :     0.000162
      dx2y2   :     0.000274
      dxy     :     0.000806
  2 H s       :     0.709350  s :     0.709350
      pz      :     0.006019  p :     0.017462
      px      :     0.004849
      py      :     0.006593
      dz2     :     0.000186  d :     0.002227
      dxz     :     0.000024
      dyz     :     0.001215
      dx2y2   :     0.000304
      dxy     :     0.000497
  3 O s       :     3.976104  s :     3.976104
      pz      :     1.249058  p :     4.509788
      px      :     1.534449
      py      :     1.726280
      dz2     :     0.000605  d :     0.015737
      dxz     :     0.007973
      dyz     :     0.004285
      dx2y2   :     0.000464
      dxy     :     0.002410
      f0      :     0.000056  f :     0.001395
      f+1     :     0.000360
      f-1     :     0.000226
      f+2     :     0.000034
      f-2     :     0.000508
      f+3     :     0.000069
      f-3     :     0.000143
  4 H s       :     0.726154  s :     0.726154
      pz      :     0.007937  p :     0.018440
      px      :     0.004565
      py      :     0.005938
      dz2     :     0.000894  d :     0.002696
      dxz     :     0.000442
      dyz     :     0.000736
      dx2y2   :     0.000446
      dxy     :     0.000178
  5 H s       :     0.726154  s :     0.726154
      pz      :     0.007937  p :     0.018440
      px      :     0.004565
      py      :     0.005938
      dz2     :     0.000894  d :     0.002696
      dxz     :     0.000442
      dyz     :     0.000736
      dx2y2   :     0.000446
      dxy     :     0.000178


                     *******************************
                     * LOEWDIN POPULATION ANALYSIS *
                     *******************************

----------------------
LOEWDIN ATOMIC CHARGES
----------------------
   0 O :   -0.199147
   1 H :    0.086309
   2 H :    0.112245
   3 O :   -0.199449
   4 H :    0.100020
   5 H :    0.100020

-------------------------------
LOEWDIN REDUCED ORBITAL CHARGES
-------------------------------
  0 O s       :     3.711476  s :     3.711476
      pz      :     1.897045  p :     4.431642
      px      :     1.265562
      py      :     1.269034
      dz2     :     0.011679  d :     0.050677
      dxz     :     0.000348
      dyz     :     0.000105
      dx2y2   :     0.026816
      dxy     :     0.011729
      f0      :     0.000071  f :     0.005352
      f+1     :     0.000814
      f-1     :     0.000985
      f+2     :     0.000002
      f-2     :     0.000008
      f+3     :     0.000786
      f-3     :     0.002686
  1 H s       :     0.672365  s :     0.672365
      pz      :     0.023425  p :     0.127707
      px      :     0.074903
      py      :     0.029379
      dz2     :     0.015421  d :     0.113619
      dxz     :     0.024738
      dyz     :     0.004024
      dx2y2   :     0.040121
      dxy     :     0.029316
  2 H s       :     0.648804  s :     0.648804
      pz      :     0.022529  p :     0.128970
      px      :     0.022026
      py      :     0.084415
      dz2     :     0.015040  d :     0.109981
      dxz     :     0.000504
      dyz     :     0.027201
      dx2y2   :     0.042099
      dxy     :     0.025137
  3 O s       :     3.708189  s :     3.708189
      pz      :     1.254643  p :     4.435074
      px      :     1.507967
      py      :     1.672464
      dz2     :     0.012069  d :     0.050800
      dxz     :     0.021950
      dyz     :     0.012498
      dx2y2   :     0.000761
      dxy     :     0.003522
      f0      :     0.000009  f :     0.005385
      f+1     :     0.002054
      f-1     :     0.001227
      f+2     :     0.000125
      f-2     :     0.001787
      f+3     :     0.000047
      f-3     :     0.000135
  4 H s       :     0.660193  s :     0.660193
      pz      :     0.058696  p :     0.126957
      px      :     0.037098
      py      :     0.031163
      dz2     :     0.024129  d :     0.112830
      dxz     :     0.036927
      dyz     :     0.028960
      dx2y2   :     0.010807
      dxy     :     0.012007
  5 H s       :     0.660193  s :     0.660193
      pz      :     0.058696  p :     0.126957
      px      :     0.037098
      py      :     0.031163
      dz2     :     0.024129  d :     0.112830
      dxz     :     0.036927
      dyz     :     0.028960
      dx2y2   :     0.010807
      dxy     :     0.012007


                      *****************************
                      * MAYER POPULATION ANALYSIS *
                      *****************************

  NA   - Mulliken gross atomic population
  ZA   - Total nuclear charge
  QA   - Mulliken gross atomic charge
  VA   - Mayer's total valence
  BVA  - Mayer's bonded valence
  FA   - Mayer's free valence

  ATOM       NA         ZA         QA         VA         BVA        FA
  0 O      8.5116     8.0000    -0.5116     1.8777     1.8777    -0.0000
  1 H      0.7618     1.0000     0.2382     0.9609     0.9609    -0.0000
  2 H      0.7290     1.0000     0.2710     0.9428     0.9428    -0.0000
  3 O      8.5030     8.0000    -0.5030     1.8842     1.8842     0.0000
  4 H      0.7473     1.0000     0.2527     0.9539     0.9539    -0.0000
  5 H      0.7473     1.0000     0.2527     0.9539     0.9539     0.0000

  Mayer bond orders larger than 0.100000
B(  0-O ,  1-H ) :   0.9490 B(  0-O ,  2-H ) :   0.9298 B(  3-O ,  4-H ) :   0.9425 
B(  3-O ,  5-H ) :   0.9425 

-------
TIMINGS
-------

Total SCF time: 0 days 0 hours 0 min 3 sec 

Total time                  ....       3.904 sec
Sum of individual times     ....       3.737 sec  ( 95.7%)

Fock matrix formation       ....       3.335 sec  ( 85.4%)
  XC integration            ....       0.706 sec  ( 21.2% of F)
    Basis function eval.    ....       0.093 sec  ( 13.2% of XC)
    Density eval.           ....       0.053 sec  (  7.5% of XC)
    XC-Functional eval.     ....       0.023 sec  (  3.3% of XC)
    XC-Potential eval.      ....       0.091 sec  ( 12.9% of XC)
Diagonalization             ....       0.082 sec  (  2.1%)
Density matrix formation    ....       0.016 sec  (  0.4%)
Population analysis         ....       0.005 sec  (  0.1%)
Initial guess               ....       0.093 sec  (  2.4%)
Orbital Transformation      ....       0.000 sec  (  0.0%)
Orbital Orthonormalization  ....       0.000 sec  (  0.0%)
DIIS solution               ....       0.043 sec  (  1.1%)
SOSCF solution              ....       0.019 sec  (  0.5%)
Grid generation             ....       0.145 sec  (  3.7%)


           ************************************************************
           *        Program running with 24 parallel MPI-processes    *
           *              working on a common directory               *
           ************************************************************

------------------------------------------------------------------------------
                                ORCA  MP2 
------------------------------------------------------------------------------

Freezing NCore=4 chemical core electrons

----------------------
RI-MP2 ENERGY+GRADIENT
----------------------
Dimension of the basis                    ...  184
Memory devoted to MP2                     ... 5000 MB   
Data format for buffers                   ... DOUBLE
Compression type for matrix containers    ... UNCOMPRESSED
Overall scaling of the MP2 energy         ...   2.700e-01
Calculating two index integrals           ... done (    0.001 sec)
Cholesky decomposition of the V-matrix    ... done
Cholesky decomposition of V**-1           ... done (    0.001 sec)

-----------------
RI-TRANSFORMATION (AUX index driven)
-----------------

Dimension of the orbital-basis         ... 184
Dimension of the aux-basis             ... 212
Transformation of internal MOs         ...    0-   9
Transformation of internal/external MOs...    0-   9 to   10- 183
Number Format for Storage              ... Double (8 Byte)
Integral mode                          ... Direct

First Phase: integral generation and transformation of MO indices
  Aux angular momentum 0               ... done (    0.002 sec)
  Aux angular momentum 1               ... done (    0.001 sec)
  Aux angular momentum 2               ... done (    0.002 sec)
  Aux angular momentum 3               ... done (    0.003 sec)
  Aux angular momentum 4               ... done (    0.003 sec)
Closing buffer VIJ ( 0.00 GB; CompressionRatio= 0.97)
Closing buffer VIA ( 0.00 GB; CompressionRatio= 1.00)
  Phase 1 completed in     0.085 sec
Second Phase: sorting and transformation of aux index

IJ-Transformation
Memory available                       ... 4995 MB 
Max. # MO pairs treated in a batch     ... 1    
# of internal orbitals                 ... 10
# batches for internal orbitals        ... 1
Closing buffer IJV ( 0.00 GB; CompressionRatio= 0.99)
(ij|v) transformation done in     0.034 sec

IA-Transformation
Memory available                       ... 4995 MB 
Max. # MO pairs treated in a batch     ... 1    
# of internal orbitals                 ... 10
# batches for internal orbitals        ... 1
Closing buffer IAV ( 0.00 GB; CompressionRatio= 1.00)
(ia|v) transformation done in     0.005 sec

  Phase 2 completed in     0.051 sec
RI-Integral transformation completed in     0.138 sec
Opening buffers                              ... done
Frozen core precalculation                   ... done

Starting loop over batches of integrals:

Operator 0  - window                       ... (  2-  9)x( 10-183)
Operator 0  - Memory available             ...  5000 MB
Operator 0  - Memory needed per MO         ...   0.6 MB
Operator 0  - Number of orbitals per batch ... 1
Operator 0  - Number of batches            ... 1

OPERATOR  0   PASS   0:  MOs     2 ...    2 +    3 ...    3 +    4 ...    4 +    5 ...    5
                            +    6 ...    6 +    7 ...    7 +    8 ...    8 +    9 ...    9
  Reading integrals       ... ok
Closing buffer GIPV ( 0.00 GB; CompressionRatio= 1.00)
Time spent in pair loops =     0.089 sec
Deleting buffer (Ka|jb)[aa] ...done

-----------------------------------------------
 RI-MP2 CORRELATION ENERGY:     -0.261324725 Eh
-----------------------------------------------


---------------------
MP2 DENSITY FORMATION
---------------------

Completing the external part of the density      ... done
Storing the unrelaxed density                    ... done

Calculating the xc-kernel                        ... done
Calculating G(D)                                 ... done
Completing the Lagrangian                        ... done
Solving the Z-vector equations                   ... 

------------------------------------------------------------------------------
                           ORCA CP-SCF CALCULATION
------------------------------------------------------------------------------

Input orbitals are from        ... 02_H2O_2.gbw
Input Perturbation             ... 02_H2O_2.pin.tmp
Wavefunction output            ... 02_H2O_2.pout.tmp
Perturbation mode              ... Real perturbation (singlet)
Solver                         ... POPLE
Max. number of iterations      ... 128
Convergence tolerance          ... 1.000e-08
Integral handling              ... Direct
Number of perturbations        ... 1
Number of operators            ... 1
Orbital ranges used for CP-SCF:
 Operator 0:  Orbitals   0...  9  to  10...183
DFT calculation                         ... on
Exchange functional (SCF)               ... B88
Exchange functional (CP-SCF)            ... B88
   X-Alpha parameter    XAlpha (SCF)    ...  0.666667
   X-Alpha parameter    XAlpha (CP-SCF) ...  0.666667
   Becke's b parameter  XBeta (SCF)     ...  0.004200
   Becke's b parameter  XBeta (CP-SCF)  ...  0.004200
Correlation functional (SCF)            ... LYP
Correlation functional (CP-SCF)         ... LYP
 LDA part of GGA corr.  LDAOpt (SCF)    ... VWN-3
 LDA part of GGA corr.  LDAOpt (CP-SCF) ... VWN-3
Hybrid DFT                              ... on
   Exchange mixing (SCF)                ...  0.530
   Exchange mixing (CP-SCF)             ...  0.530
   GGA exch. scaling(SCF)               ...  0.470
   GGA exch. scaling (CP-SCF)           ...  0.470
   GGA corr. scaling (SCF)              ...  0.730
   GGA corr. scaling (CP-SCF)           ...  0.730
Variables per vector in CP-SCF ... 1740
Number of vectors sought       ... 1
Recalculating density on grid  ... done
Calculating the xc-kernel      ... done
     CP-SCF ITERATION   0: 
     CP-SCF ITERATION   1:      0.005935820699
     CP-SCF ITERATION   2:      0.000198525931
     CP-SCF ITERATION   3:      0.000066664870
     CP-SCF ITERATION   4:      0.000042182407
     CP-SCF ITERATION   5:      0.000002555610
     CP-SCF ITERATION   6:      0.000000026173
     CP-SCF ITERATION   7:      0.000000003250
done
Finalizing the relaxed density                   ... done
Transforming P to the AO basis                   ... done
Storing the relaxed density                      ... done

------------------------------------
ENERGY WEIGHTED DENSITY FINALIZATION
------------------------------------

Gathering the parts of the W-matrix              ... done
Forming the Z-density                            ... done
Transforming Z to the AO basis                   ... done
Calculating G(Z)                                 ... done
Finalizing the W-matrix                          ... done
Transforming W to the AO basis and storing       ... done
Entering the RIJONX and RIJCOSX sections
Starting the three-index derivative integrals:
Operator 0  - Memory available             ...  5000 MB
Operator 0  - Memory needed per MO         ...   0.6 MB
Operator 0  - Number of orbitals per batch ... 1
Operator 0  - Number of batches            ... 1

OPERATOR  0   PASS   0:  MOs     2 ...    2 +    3 ...    3 +    4 ...    4 +    5 ...    5
                            +    6 ...    6 +    7 ...    7 +    8 ...    8 +    9 ...    9

----------------------------------
MP2 DERIVATIVE INTEGRAL GENERATION
----------------------------------


Input Correlated Electron Density   ... 02_H2O_2.pmp2re
Input Energy Weighted Density       ... 02_H2O_2.wmp2.tmp
Input SCF Electron Density          ... 02_H2O_2.scfp

One-Electron Terms    ...
                        ... One-Electron Terms done
Prescreening matrices              ... done
Exchange-correlation gradient    ... done
Dispersion correction            ... done

                *********************************************
                * UNRELAXED MP2 DENSITY POPULATION ANALYSIS *
                *********************************************

------------------------------------------------------------------------------
                           ORCA POPULATION ANALYSIS
------------------------------------------------------------------------------
Input electron density              ... 02_H2O_2.pmp2ur
BaseName (.gbw .S,...)              ... 02_H2O_2

                    ********************************
                    * MULLIKEN POPULATION ANALYSIS *
                    ********************************

-----------------------
MULLIKEN ATOMIC CHARGES
-----------------------
   0 O :   -0.477513
   1 H :    0.222253
   2 H :    0.252901
   3 O :   -0.469382
   4 H :    0.235871
   5 H :    0.235871
Sum of atomic charges:   -0.0000000

--------------------------------
MULLIKEN REDUCED ORBITAL CHARGES
--------------------------------
  0 O s       :     3.974909  s :     3.974909
      pz      :     1.977975  p :     4.473801
      px      :     1.239439
      py      :     1.256387
      dz2     :     0.005477  d :     0.026325
      dxz     :     0.002404
      dyz     :     0.002291
      dx2y2   :     0.011360
      dxy     :     0.004793
      f0      :     0.000282  f :     0.002477
      f+1     :     0.000555
      f-1     :     0.000647
      f+2     :     0.000170
      f-2     :     0.000167
      f+3     :     0.000195
      f-3     :     0.000462
  1 H s       :     0.755386  s :     0.755386
      pz      :     0.007186  p :     0.019605
      px      :     0.005048
      py      :     0.007371
      dz2     :     0.000282  d :     0.002756
      dxz     :     0.001156
      dyz     :     0.000202
      dx2y2   :     0.000329
      dxy     :     0.000787
  2 H s       :     0.725697  s :     0.725697
      pz      :     0.007010  p :     0.018949
      px      :     0.005323
      py      :     0.006615
      dz2     :     0.000197  d :     0.002453
      dxz     :     0.000042
      dyz     :     0.001342
      dx2y2   :     0.000348
      dxy     :     0.000525
  3 O s       :     3.970088  s :     3.970088
      pz      :     1.234738  p :     4.471106
      px      :     1.520626
      py      :     1.715742
      dz2     :     0.002609  d :     0.025730
      dxz     :     0.009802
      dyz     :     0.006315
      dx2y2   :     0.002615
      dxy     :     0.004390
      f0      :     0.000216  f :     0.002458
      f+1     :     0.000493
      f-1     :     0.000375
      f+2     :     0.000202
      f-2     :     0.000634
      f+3     :     0.000235
      f-3     :     0.000304
  4 H s       :     0.741309  s :     0.741309
      pz      :     0.008008  p :     0.019963
      px      :     0.005224
      py      :     0.006731
      dz2     :     0.000869  d :     0.002857
      dxz     :     0.000497
      dyz     :     0.000806
      dx2y2   :     0.000492
      dxy     :     0.000193
  5 H s       :     0.741309  s :     0.741309
      pz      :     0.008008  p :     0.019963
      px      :     0.005224
      py      :     0.006731
      dz2     :     0.000869  d :     0.002857
      dxz     :     0.000497
      dyz     :     0.000806
      dx2y2   :     0.000492
      dxy     :     0.000193


                     *******************************
                     * LOEWDIN POPULATION ANALYSIS *
                     *******************************

----------------------
LOEWDIN ATOMIC CHARGES
----------------------
   0 O :   -0.170664
   1 H :    0.072753
   2 H :    0.097221
   3 O :   -0.170953
   4 H :    0.085821
   5 H :    0.085821

-------------------------------
LOEWDIN REDUCED ORBITAL CHARGES
-------------------------------
  0 O s       :     3.707866  s :     3.707866
      pz      :     1.889110  p :     4.392791
      px      :     1.250019
      py      :     1.253661
      dz2     :     0.014342  d :     0.063196
      dxz     :     0.002432
      dyz     :     0.002250
      dx2y2   :     0.030119
      dxy     :     0.014053
      f0      :     0.000244  f :     0.006811
      f+1     :     0.001036
      f-1     :     0.001225
      f+2     :     0.000171
      f-2     :     0.000172
      f+3     :     0.000963
      f-3     :     0.003000
  1 H s       :     0.681741  s :     0.681741
      pz      :     0.024915  p :     0.131700
      px      :     0.077411
      py      :     0.029374
      dz2     :     0.015610  d :     0.113807
      dxz     :     0.024894
      dyz     :     0.004086
      dx2y2   :     0.039929
      dxy     :     0.029287
  2 H s       :     0.659986  s :     0.659986
      pz      :     0.023971  p :     0.132509
      px      :     0.022022
      py      :     0.086516
      dz2     :     0.015243  d :     0.110284
      dxz     :     0.000527
      dyz     :     0.027409
      dx2y2   :     0.042672
      dxy     :     0.024434
  3 O s       :     3.704657  s :     3.704657
      pz      :     1.240803  p :     4.396094
      px      :     1.494123
      py      :     1.661168
      dz2     :     0.014177  d :     0.063350
      dxz     :     0.025111
      dyz     :     0.015278
      dx2y2   :     0.002851
      dxy     :     0.005934
      f0      :     0.000176  f :     0.006851
      f+1     :     0.002339
      f-1     :     0.001465
      f+2     :     0.000302
      f-2     :     0.002040
      f+3     :     0.000216
      f-3     :     0.000313
  4 H s       :     0.670474  s :     0.670474
      pz      :     0.059813  p :     0.130702
      px      :     0.038381
      py      :     0.032508
      dz2     :     0.023742  d :     0.113003
      dxz     :     0.037246
      dyz     :     0.029208
      dx2y2   :     0.010867
      dxy     :     0.011940
  5 H s       :     0.670474  s :     0.670474
      pz      :     0.059813  p :     0.130702
      px      :     0.038381
      py      :     0.032508
      dz2     :     0.023742  d :     0.113003
      dxz     :     0.037246
      dyz     :     0.029208
      dx2y2   :     0.010867
      dxy     :     0.011940


                      *****************************
                      * MAYER POPULATION ANALYSIS *
                      *****************************

  NA   - Mulliken gross atomic population
  ZA   - Total nuclear charge
  QA   - Mulliken gross atomic charge
  VA   - Mayer's total valence
  BVA  - Mayer's bonded valence
  FA   - Mayer's free valence

  ATOM       NA         ZA         QA         VA         BVA        FA
  0 O      8.4775     8.0000    -0.4775     2.0848     1.5861     0.4987
  1 H      0.7777     1.0000     0.2223     0.9745     0.8140     0.1605
  2 H      0.7471     1.0000     0.2529     0.9575     0.7983     0.1592
  3 O      8.4694     8.0000    -0.4694     2.0908     1.5947     0.4961
  4 H      0.7641     1.0000     0.2359     0.9679     0.8091     0.1588
  5 H      0.7641     1.0000     0.2359     0.9679     0.8091     0.1588

  Mayer bond orders larger than 0.100000
B(  0-O ,  1-H ) :   0.8020 B(  0-O ,  2-H ) :   0.7852 B(  3-O ,  4-H ) :   0.7977 
B(  3-O ,  5-H ) :   0.7977 


                *******************************************
                * RELAXED MP2 DENSITY POPULATION ANALYSIS *
                *******************************************

------------------------------------------------------------------------------
                           ORCA POPULATION ANALYSIS
------------------------------------------------------------------------------
Input electron density              ... 02_H2O_2.pmp2re
BaseName (.gbw .S,...)              ... 02_H2O_2

                    ********************************
                    * MULLIKEN POPULATION ANALYSIS *
                    ********************************

-----------------------
MULLIKEN ATOMIC CHARGES
-----------------------
   0 O :   -0.457046
   1 H :    0.216815
   2 H :    0.237548
   3 O :   -0.447169
   4 H :    0.224926
   5 H :    0.224926
Sum of atomic charges:   -0.0000000

--------------------------------
MULLIKEN REDUCED ORBITAL CHARGES
--------------------------------
  0 O s       :     3.979006  s :     3.979006
      pz      :     1.969309  p :     4.452547
      px      :     1.227944
      py      :     1.255294
      dz2     :     0.004880  d :     0.023104
      dxz     :     0.002479
      dyz     :     0.002308
      dx2y2   :     0.009281
      dxy     :     0.004156
      f0      :     0.000295  f :     0.002389
      f+1     :     0.000539
      f-1     :     0.000614
      f+2     :     0.000170
      f-2     :     0.000167
      f+3     :     0.000186
      f-3     :     0.000418
  1 H s       :     0.757392  s :     0.757392
      pz      :     0.011012  p :     0.022246
      px      :     0.004236
      py      :     0.006998
      dz2     :     0.000308  d :     0.003547
      dxz     :     0.001639
      dyz     :     0.000332
      dx2y2   :     0.000569
      dxy     :     0.000698
  2 H s       :     0.738618  s :     0.738618
      pz      :     0.010553  p :     0.020674
      px      :     0.005969
      py      :     0.004152
      dz2     :     0.000219  d :     0.003160
      dxz     :     0.000036
      dyz     :     0.001935
      dx2y2   :     0.000359
      dxy     :     0.000611
  3 O s       :     3.974352  s :     3.974352
      pz      :     1.249247  p :     4.447916
      px      :     1.498260
      py      :     1.700408
      dz2     :     0.002357  d :     0.022527
      dxz     :     0.008066
      dyz     :     0.005381
      dx2y2   :     0.002652
      dxy     :     0.004072
      f0      :     0.000212  f :     0.002374
      f+1     :     0.000465
      f-1     :     0.000360
      f+2     :     0.000200
      f-2     :     0.000590
      f+3     :     0.000241
      f-3     :     0.000306
  4 H s       :     0.749623  s :     0.749623
      pz      :     0.006095  p :     0.021919
      px      :     0.006842
      py      :     0.008981
      dz2     :     0.000807  d :     0.003532
      dxz     :     0.000764
      dyz     :     0.001095
      dx2y2   :     0.000640
      dxy     :     0.000227
  5 H s       :     0.749623  s :     0.749623
      pz      :     0.006095  p :     0.021919
      px      :     0.006842
      py      :     0.008981
      dz2     :     0.000807  d :     0.003532
      dxz     :     0.000764
      dyz     :     0.001095
      dx2y2   :     0.000640
      dxy     :     0.000227


                     *******************************
                     * LOEWDIN POPULATION ANALYSIS *
                     *******************************

----------------------
LOEWDIN ATOMIC CHARGES
----------------------
   0 O :   -0.153778
   1 H :    0.067891
   2 H :    0.084242
   3 O :   -0.152560
   4 H :    0.077103
   5 H :    0.077103

-------------------------------
LOEWDIN REDUCED ORBITAL CHARGES
-------------------------------
  0 O s       :     3.707045  s :     3.707045
      pz      :     1.875977  p :     4.378030
      px      :     1.244367
      py      :     1.257685
      dz2     :     0.014603  d :     0.061587
      dxz     :     0.002345
      dyz     :     0.002230
      dx2y2   :     0.028868
      dxy     :     0.013542
      f0      :     0.000240  f :     0.007116
      f+1     :     0.001095
      f-1     :     0.001273
      f+2     :     0.000171
      f-2     :     0.000172
      f+3     :     0.000970
      f-3     :     0.003195
  1 H s       :     0.681750  s :     0.681750
      pz      :     0.030635  p :     0.135914
      px      :     0.077529
      py      :     0.027750
      dz2     :     0.015802  d :     0.114446
      dxz     :     0.025745
      dyz     :     0.004314
      dx2y2   :     0.039741
      dxy     :     0.028845
  2 H s       :     0.669178  s :     0.669178
      pz      :     0.029348  p :     0.135798
      px      :     0.021256
      py      :     0.085194
      dz2     :     0.015391  d :     0.110783
      dxz     :     0.000514
      dyz     :     0.028486
      dx2y2   :     0.043003
      dxy     :     0.023389
  3 O s       :     3.704160  s :     3.704160
      pz      :     1.258322  p :     4.379493
      px      :     1.475572
      py      :     1.645599
      dz2     :     0.014176  d :     0.061744
      dxz     :     0.024006
      dyz     :     0.014699
      dx2y2   :     0.002752
      dxy     :     0.006111
      f0      :     0.000174  f :     0.007163
      f+1     :     0.002499
      f-1     :     0.001559
      f+2     :     0.000305
      f-2     :     0.002074
      f+3     :     0.000218
      f-3     :     0.000332
  4 H s       :     0.675173  s :     0.675173
      pz      :     0.057733  p :     0.134196
      px      :     0.040507
      py      :     0.035956
      dz2     :     0.022807  d :     0.113528
      dxz     :     0.037873
      dyz     :     0.029874
      dx2y2   :     0.011127
      dxy     :     0.011846
  5 H s       :     0.675173  s :     0.675173
      pz      :     0.057733  p :     0.134196
      px      :     0.040507
      py      :     0.035956
      dz2     :     0.022807  d :     0.113528
      dxz     :     0.037873
      dyz     :     0.029874
      dx2y2   :     0.011127
      dxy     :     0.011846


                      *****************************
                      * MAYER POPULATION ANALYSIS *
                      *****************************

  NA   - Mulliken gross atomic population
  ZA   - Total nuclear charge
  QA   - Mulliken gross atomic charge
  VA   - Mayer's total valence
  BVA  - Mayer's bonded valence
  FA   - Mayer's free valence

  ATOM       NA         ZA         QA         VA         BVA        FA
  0 O      8.4570     8.0000    -0.4570     2.0935     1.6107     0.4828
  1 H      0.7832     1.0000     0.2168     0.9847     0.8251     0.1597
  2 H      0.7625     1.0000     0.2375     0.9715     0.8135     0.1581
  3 O      8.4472     8.0000    -0.4472     2.0984     1.6185     0.4799
  4 H      0.7751     1.0000     0.2249     0.9799     0.8220     0.1580
  5 H      0.7751     1.0000     0.2249     0.9799     0.8220     0.1580

  Mayer bond orders larger than 0.100000
B(  0-O ,  1-H ) :   0.8121 B(  0-O ,  2-H ) :   0.7994 B(  3-O ,  4-H ) :   0.8095 
B(  3-O ,  5-H ) :   0.8095 


-------
TIMINGS
-------

Total time                :    5.109 sec
Integral trafo            :    0.149 sec (  2.9%)
FC preparation            :    0.005 sec (  0.1%)
I/O of integrals          :    0.000 sec (  0.0%)
K(i,j) Operators          :    0.002 sec (  0.0%)
T(i,j) pair energies      :    0.002 sec (  0.0%)
V-calculation             :    0.001 sec (  0.0%)
V**(-1/2)                 :    0.001 sec (  0.0%)
Gamma(ia|P)               :    0.001 sec (  0.0%)
Gamma-Trafo               :    0.002 sec (  0.0%)
D(virtual)                :    0.000 sec (  0.0%)
D(internal)               :    0.003 sec (  0.1%)
W(virtual)                :    0.001 sec (  0.0%)
W(internal)               :    0.002 sec (  0.0%)
L(virtual)                :    0.064 sec (  1.3%)
L(internal)               :    0.000 sec (  0.0%)
G(D)                      :    0.581 sec ( 11.4%)
G(Z)                      :    0.567 sec ( 11.1%)
Z-Vector Solution         :    2.467 sec ( 48.3%)
Z-Vector Solution         :    2.467 sec ( 48.3%)
3-Index Derivative 
+ Separable RIJ part      :    0.317 sec (  6.2%)
2-Index Derivative 
+ Separable RIJ part      :    0.001 sec (  0.0%)
Separable Gradient (X)    :    0.647 sec ( 12.7%)


---------------------------------------
MP2 TOTAL ENERGY:     -152.223640990 Eh
---------------------------------------

-----------------------------------
NORM OF THE MP2 GRADIENT:  0.191592
-----------------------------------


-------------------------------------------------------------------------------
                          DFT DISPERSION CORRECTION                            
                                                                               
                              DFTD3 V3.1  Rev 1                                
                          USING Becke-Johnson damping                          
-------------------------------------------------------------------------------
The B2PLYP functional is recognized
Active option DFTDOPT                   ...         4   

molecular C6(AA) [au] = 341.285125 


            DFT-D V3
 parameters
 s6 scaling factor         :     0.6400 
 a1 scaling factor         :     0.3065 
 s8 scaling factor         :     0.9147 
 a2 scaling factor         :     5.0570 
 ad hoc parameters k1-k3   :    16.0000     1.3333    -4.0000 

 Edisp/kcal,au: -0.583304036959  -0.000929554053 
 E6   /kcal   :  -0.379387266 
 E8   /kcal   :  -0.203916771 
 % E8         :  34.958916523 

-------------------------   ----------------
Dispersion correction           -0.000929554
-------------------------   ----------------


-------------------------   --------------------
FINAL SINGLE POINT ENERGY      -152.224570544033
-------------------------   --------------------

------------------------------------------------------------------------------
                         ORCA GEOMETRY RELAXATION STEP
------------------------------------------------------------------------------

Reading the OPT-File                    .... done
Getting information on internals        .... done
Copying old internal coords+grads       .... done
Making the new internal coordinates     .... (new redundants).... done
Validating the new internal coordinates .... (new redundants).... done
Calculating the B-matrix                .... done
Calculating the G,G- and P matrices     .... done
Transforming gradient to internals      .... done
Projecting the internal gradient        .... done
Number of atoms                         ....   6
Number of internal coordinates          ....  13
Current Energy                          ....  -152.224570544 Eh
Current gradient norm                   ....     0.191592313 Eh/bohr
Maximum allowed component of the step   ....  0.300
Current trust radius                    ....  0.300
Evaluating the initial hessian          ....  (Almloef) done
Projecting the Hessian                  .... done
Forming the augmented Hessian           .... done
Diagonalizing the augmented Hessian     .... done
Last element of RFO vector              ....  0.733731821
Lowest eigenvalues of augmented Hessian:
 -0.142571886  0.000023623  0.001500001  0.001721984  0.021989016
Length of the computed step             ....  0.926004804
Warning: the length of the step is outside the trust region - taking restricted step instead
The input lambda is                     ....    -0.142572
   iter:   1  x=   -0.216765  g=   10.344437 f(x)=     0.767485
   iter:   2  x=   -0.310519  g=    3.407667 f(x)=     0.319483
   iter:   3  x=   -0.406741  g=    1.267744 f(x)=     0.121984
   iter:   4  x=   -0.470538  g=    0.593437 f(x)=     0.037860
   iter:   5  x=   -0.488424  g=    0.392089 f(x)=     0.007013
   iter:   6  x=   -0.489454  g=    0.352449 f(x)=     0.000363
   iter:   7  x=   -0.489457  g=    0.350333 f(x)=     0.000001
   iter:   8  x=   -0.489457  g=    0.350326 f(x)=     0.000000
   iter:   9  x=   -0.489457  g=    0.350326 f(x)=     0.000000
The output lambda is                    ....    -0.489457 (9 iterations)
The final length of the internal step   ....  0.300000000
Converting the step to cartesian space:
 Initial RMS(Int)=    0.0832050294
Transforming coordinates:
 Iter   0:  RMS(Cart)=    0.0904387736 RMS(Int)=    1.7446149540
 Iter   1:  RMS(Cart)=    0.0009931667 RMS(Int)=    0.0008437247
 Iter   2:  RMS(Cart)=    0.0000348415 RMS(Int)=    0.0000472738
 Iter   3:  RMS(Cart)=    0.0000011183 RMS(Int)=    0.0000011826
 Iter   4:  RMS(Cart)=    0.0000000536 RMS(Int)=    0.0000000378
done
Storing new coordinates                 .... done

                                .--------------------.
          ----------------------|Geometry convergence|-------------------------
          Item                value                   Tolerance       Converged
          ---------------------------------------------------------------------
          RMS gradient        0.0428047057            0.0001000000      NO
          MAX gradient        0.0763949368            0.0003000000      NO
          RMS step            0.0832050294            0.0020000000      NO
          MAX step            0.1491159656            0.0040000000      NO
          ........................................................
          Max(Bonds)      0.0789      Max(Angles)    1.93
          Max(Dihed)        0.65      Max(Improp)    0.00
          ---------------------------------------------------------------------

The optimization has not yet converged - more geometry cycles are needed


    ---------------------------------------------------------------------------
                         Redundant Internal Coordinates
                            (Angstroem and degrees)

        Definition                    Value    dE/dq     Step     New-Value
    ----------------------------------------------------------------------------
     1. B(H   1,O   0)                1.8105  0.076395 -0.0789    1.7315   
     2. B(H   2,O   0)                1.8238  0.075099 -0.0777    1.7461   
     3. B(O   3,H   2)                3.6908  0.000886 -0.0010    3.6898   
     4. B(H   4,O   3)                1.8134  0.076114 -0.0787    1.7347   
     5. B(H   5,O   3)                1.8134  0.076114 -0.0787    1.7347   
     6. A(H   1,O   0,H   2)          104.67  0.021426   -1.93    102.74   
     7. A(O   0,H   2,O   3)          172.57 -0.000027    0.00    172.57   
     8. A(H   2,O   3,H   4)          111.75 -0.003546    0.29    112.05   
     9. A(H   4,O   3,H   5)          104.78  0.013794   -1.34    103.45   
    10. A(H   2,O   3,H   5)          111.75 -0.003546    0.29    112.05   
    11. D(O   3,H   2,O   0,H   1)    180.00 -0.000000    0.00    180.00   
    12. D(H   5,O   3,H   2,O   0)     58.53  0.006369   -0.65     57.88   
    13. D(H   4,O   3,H   2,O   0)    -58.53 -0.006369    0.65    -57.88   
    ----------------------------------------------------------------------------

         *************************************************************
         *                GEOMETRY OPTIMIZATION CYCLE   2            *
         *************************************************************
---------------------------------
CARTESIAN COORDINATES (ANGSTROEM)
---------------------------------
  O      0.118652    2.773882   -0.000000
  H     -1.505943    3.373002    0.000000
  H     -0.109381    1.042731   -0.000000
  O     -0.114344   -2.647113   -0.000000
  H      0.739602   -3.299452   -1.361830
  H      0.739602   -3.299452    1.361830

----------------------------
CARTESIAN COORDINATES (A.U.)
----------------------------
  NO LB      ZA    FRAG     MASS         X           Y           Z
   0 O     8.0000    0    15.999    0.224219    5.241877   -0.000000
   1 H     1.0000    0     1.008   -2.845819    6.374050    0.000000
   2 H     1.0000    0     1.008   -0.206700    1.970475   -0.000000
   3 O     8.0000    0    15.999   -0.216080   -5.002319   -0.000000
   4 H     1.0000    0     1.008    1.397644   -6.235062   -2.573486
   5 H     1.0000    0     1.008    1.397644   -6.235061    2.573486

--------------------------------
INTERNAL COORDINATES (ANGSTROEM)
--------------------------------
 O      0   0   0     0.000000000000     0.00000000     0.00000000
 H      1   0   0     1.731546390706     0.00000000     0.00000000
 H      1   2   0     1.746105017426   102.73906689     0.00000000
 O      3   1   2     3.689847116448   172.57310057   180.00000121
 H      4   3   1     1.734748337911   112.04780688   302.11655128
 H      4   3   1     1.734748340314   112.04780301    57.88344981

---------------------------
INTERNAL COORDINATES (A.U.)
---------------------------
 O      0   0   0     0.000000000000     0.00000000     0.00000000
 H      1   0   0     3.272148466615     0.00000000     0.00000000
 H      1   2   0     3.299660284001   102.73906689     0.00000000
 O      3   1   2     6.972800526126   172.57310057   180.00000121
 H      4   3   1     3.278199269927   112.04780688   302.11655128
 H      4   3   1     3.278199274468   112.04780301    57.88344981



           ************************************************************
           *        Program running with 24 parallel MPI-processes    *
           *              working on a common directory               *
           ************************************************************
 One Electron integrals                  ... done
 Pre-screening matrix                    ... done


           ************************************************************
           *        Program running with 24 parallel MPI-processes    *
           *              working on a common directory               *
           ************************************************************

Diagonalization of the overlap matrix:
Smallest eigenvalue                        ... 1.738e-03
Time for diagonalization                   ...    0.008 sec
Threshold for overlap eigenvalues          ... 1.000e-08
Number of eigenvalues below threshold      ... 0
Time for construction of square roots      ...    0.004 sec
Total time needed                          ...    0.012 sec

-------------------
DFT GRID GENERATION
-------------------

General Integration Accuracy     IntAcc      ...  4.670
Radial Grid Type                 RadialGrid  ... Gauss-Chebyshev
Angular Grid (max. acc.)         AngularGrid ... Lebedev-302
Angular grid pruning method      GridPruning ... 3 (G Style)
Weight generation scheme         WeightScheme... Becke
Basis function cutoff            BFCut       ...    1.0000e-11
Integration weight cutoff        WCut        ...    1.0000e-14
Grids for H and He will be reduced by one unit

# of grid points (after initial pruning)     ...  26000 (   0.0 sec)
# of grid points (after weights+screening)   ...  25730 (   0.0 sec)
nearest neighbour list constructed           ...    0.0 sec
Grid point re-assignment to atoms done       ...    0.0 sec
Grid point division into batches done        ...    0.1 sec
Reduced shell lists constructed in    0.1 sec

Total number of grid points                  ...    25730
Total number of batches                      ...      404
Average number of points per batch           ...       63
Average number of grid points per atom       ...     4288
Average number of shells per batch           ...    26.11 (40.80%)
Average number of basis functions per batch  ...    66.78 (36.29%)
Average number of large shells per batch     ...    19.11 (73.19%)
Average number of large basis fcns per batch ...    46.33 (69.38%)
Average number of aux-shells per batch       ...    26.11 (35.29%)
Average number of aux functions per batch    ...    66.78 (29.55%)
Maximum spatial batch extension              ...  13.13, 14.34, 16.88 au
Average spatial batch extension              ...   0.31,  0.35,  0.36 au

Time for grid setup =    0.139 sec

--------------
SCF ITERATIONS
--------------
ITER       Energy         Delta-E        Max-DP      RMS-DP      [F,P]     Damp
  0   -152.0209351310   0.000000000000 0.00204686  0.00004717  0.0128674 0.7000
                      *** Initiating the SOSCF procedure ***
                      *** Re-Reading the Fockian *** 
                      *** Removing any level shift *** 
[...]
GBWName                                         ... 02_H2O_2.gbw
Electron density file                           ... 02_H2O_2.scfp
The origin for moment calculation is the CENTER OF MASS  = (-0.020241, -0.314458 -0.000013)

-------------
DIPOLE MOMENT
-------------
                                X             Y             Z
Electronic contribution:      0.03267       0.00324       0.00000
Nuclear contribution   :     -0.06757      -1.05826       0.00004
                        -----------------------------------------
Total Dipole Moment    :     -0.03490      -1.05502       0.00004
                        -----------------------------------------
Magnitude (a.u.)       :      1.05560
Magnitude (Debye)      :      2.68312



--------------------
Rotational spectrum 
--------------------
 
Rotational constants in cm-1:     7.265308     0.214936     0.214847 
Rotational constants in MHz : 217808.445651  6443.625648  6440.954702 

 Dipole components along the rotational axes: 
x,y,z [a.u.] :    -1.055123    -0.000135     0.031734 
x,y,z [Debye]:    -2.681911    -0.000344     0.080662 

 

                         *** MP2 UNRELAXED DENSITY ***

------------------------------------------------------------------------------
                       ORCA ELECTRIC PROPERTIES CALCULATION
------------------------------------------------------------------------------

Dipole Moment Calculation                       ... on
Quadrupole Moment Calculation                   ... off
Polarizability Calculation                      ... off
GBWName                                         ... 02_H2O_2.gbw
Electron density file                           ... 02_H2O_2.pmp2ur
The origin for moment calculation is the CENTER OF MASS  = (-0.020241, -0.314458 -0.000013)

-------------
DIPOLE MOMENT
-------------
                                X             Y             Z
Electronic contribution:      0.03358       0.00983       0.00000
Nuclear contribution   :     -0.06757      -1.05826       0.00004
                        -----------------------------------------
Total Dipole Moment    :     -0.03398      -1.04843       0.00004
                        -----------------------------------------
Magnitude (a.u.)       :      1.04898
Magnitude (Debye)      :      2.66630



--------------------
Rotational spectrum 
--------------------
 
Rotational constants in cm-1:     7.265308     0.214936     0.214847 
Rotational constants in MHz : 217808.445651  6443.625648  6440.954702 

 Dipole components along the rotational axes: 
x,y,z [a.u.] :    -1.048529    -0.000132     0.030842 
x,y,z [Debye]:    -2.665148    -0.000337     0.078395 

 

                           *** MP2 RELAXED DENSITY ***

------------------------------------------------------------------------------
                       ORCA ELECTRIC PROPERTIES CALCULATION
------------------------------------------------------------------------------

Dipole Moment Calculation                       ... on
Quadrupole Moment Calculation                   ... off
Polarizability Calculation                      ... off
GBWName                                         ... 02_H2O_2.gbw
Electron density file                           ... 02_H2O_2.pmp2re
The origin for moment calculation is the CENTER OF MASS  = (-0.020241, -0.314458 -0.000013)

-------------
DIPOLE MOMENT
-------------
                                X             Y             Z
Electronic contribution:      0.03517       0.02153       0.00000
Nuclear contribution   :     -0.06757      -1.05826       0.00004
                        -----------------------------------------
Total Dipole Moment    :     -0.03239      -1.03673       0.00004
                        -----------------------------------------
Magnitude (a.u.)       :      1.03724
Magnitude (Debye)      :      2.63645



--------------------
Rotational spectrum 
--------------------
 
Rotational constants in cm-1:     7.265308     0.214936     0.214847 
Rotational constants in MHz : 217808.445651  6443.625648  6440.954702 

 Dipole components along the rotational axes: 
x,y,z [a.u.] :    -1.036826    -0.000127     0.029284 
x,y,z [Debye]:    -2.635402    -0.000324     0.074435 

 

----------------------------------------------------------------------------
                           ORCA NUMERICAL FREQUENCIES
                              (24-process run)
----------------------------------------------------------------------------

Number of atoms                ... 6
Central differences            ... used
Number of displacements        ... 36
Numerical increment            ... 5.000e-03 bohr
IR-spectrum generation         ... on
Raman-spectrum generation      ... off
Surface Crossing Hessian       ... off

 WARNING: There are more processes than displacements to do
  ====> : Reducing number of processes to  18

The output will be reduced. Please look at the following files:
SCF program output             ... >02_H2O_2.lastscf
Integral program output        ... >02_H2O_2.lastint
Gradient program output        ... >02_H2O_2.lastgrad
Dipole moment program output   ... >02_H2O_2.lastmom
AutoCI program output          ... >02_H2O_2.lastautoci


         <<< Energy and Gradient at the input geometry >>>

        <<< Energy and Gradient at displaced geometries >>>
             <<<Displacing   1/coordinate 1 (+)>>>
             <<<Displacing   6/coordinate 1 (+)>>>
             <<<Displacing   6/coordinate 3 (+)>>>
             <<<Displacing   1/coordinate 3 (+)>>>
             <<<Displacing   4/coordinate 1 (+)>>>
             <<<Displacing   2/coordinate 2 (+)>>>
             <<<Displacing   5/coordinate 2 (+)>>>
             <<<Displacing   3/coordinate 3 (+)>>>
             <<<Displacing   1/coordinate 2 (+)>>>
             <<<Displacing   2/coordinate 3 (+)>>>
             <<<Displacing   6/coordinate 2 (+)>>>
             <<<Displacing   4/coordinate 2 (+)>>>
             <<<Displacing   5/coordinate 1 (+)>>>
             <<<Displacing   4/coordinate 3 (+)>>>
             <<<Displacing   5/coordinate 3 (+)>>>
             <<<Displacing   2/coordinate 1 (+)>>>
             <<<Displacing   3/coordinate 2 (+)>>>
             <<<Displacing   3/coordinate 1 (+)>>>
             <<<Displacing   2/coordinate 3 (-)>>>
             <<<Displacing   1/coordinate 3 (-)>>>
             <<<Displacing   4/coordinate 3 (-)>>>
             <<<Displacing   3/coordinate 3 (-)>>>
             <<<Displacing   2/coordinate 2 (-)>>>
             <<<Displacing   5/coordinate 2 (-)>>>
             <<<Displacing   6/coordinate 2 (-)>>>
             <<<Displacing   5/coordinate 3 (-)>>>
             <<<Displacing   5/coordinate 1 (-)>>>
             <<<Displacing   3/coordinate 1 (-)>>>
             <<<Displacing   6/coordinate 1 (-)>>>
             <<<Displacing   6/coordinate 3 (-)>>>
             <<<Displacing   1/coordinate 1 (-)>>>
             <<<Displacing   4/coordinate 1 (-)>>>
             <<<Displacing   2/coordinate 1 (-)>>>
             <<<Displacing   1/coordinate 2 (-)>>>
             <<<Displacing   4/coordinate 2 (-)>>>
             <<<Displacing   3/coordinate 2 (-)>>>

-----------------------
VIBRATIONAL FREQUENCIES
-----------------------

Scaling factor for frequencies =  1.000000000 (already applied!)

   0:         0.00 cm**-1
   1:         0.00 cm**-1
   2:         0.00 cm**-1
   3:         0.00 cm**-1
   4:         0.00 cm**-1
   5:         0.00 cm**-1
   6:       102.55 cm**-1
   7:       145.34 cm**-1
   8:       151.95 cm**-1
   9:       186.22 cm**-1
  10:       360.16 cm**-1
  11:       624.31 cm**-1
  12:      1633.70 cm**-1
  13:      1654.27 cm**-1
  14:      3701.58 cm**-1
  15:      3806.18 cm**-1
  16:      3893.44 cm**-1
  17:      3912.83 cm**-1


------------
NORMAL MODES
------------

These modes are the cartesian displacements weighted by the diagonal matrix
M(i,i)=1/sqrt(m[i]) where m[i] is the mass of the displaced atom
Thus, these vectors are normalized but *not* orthogonal

                  0          1          2          3          4          5    
      0       0.000000   0.000000   0.000000   0.000000   0.000000   0.000000
      1       0.000000   0.000000   0.000000   0.000000   0.000000   0.000000
      2       0.000000   0.000000   0.000000   0.000000   0.000000   0.000000
      3       0.000000   0.000000   0.000000   0.000000   0.000000   0.000000
      4       0.000000   0.000000   0.000000   0.000000   0.000000   0.000000
      5       0.000000   0.000000   0.000000   0.000000   0.000000   0.000000
      6       0.000000   0.000000   0.000000   0.000000   0.000000   0.000000
      7       0.000000   0.000000   0.000000   0.000000   0.000000   0.000000
      8       0.000000   0.000000   0.000000   0.000000   0.000000   0.000000
      9       0.000000   0.000000   0.000000   0.000000   0.000000   0.000000
     10       0.000000   0.000000   0.000000   0.000000   0.000000   0.000000
     11       0.000000   0.000000   0.000000   0.000000   0.000000   0.000000
     12       0.000000   0.000000   0.000000   0.000000   0.000000   0.000000
     13       0.000000   0.000000   0.000000   0.000000   0.000000   0.000000
     14       0.000000   0.000000   0.000000   0.000000   0.000000   0.000000
     15       0.000000   0.000000   0.000000   0.000000   0.000000   0.000000
     16       0.000000   0.000000   0.000000   0.000000   0.000000   0.000000
     17       0.000000   0.000000   0.000000   0.000000   0.000000   0.000000
                  6          7          8          9         10         11    
      0      -0.000012   0.000096  -0.009347   0.014596  -0.013292  -0.000009
      1       0.000013  -0.000769   0.130108   0.224226  -0.035897  -0.000009
      2      -0.063222   0.015515   0.000099   0.000008   0.000006  -0.027601
      3       0.000438   0.001470  -0.154898   0.153190   0.261756  -0.000012
      4       0.000424   0.002165  -0.204788   0.546346   0.593495  -0.000019
      5       0.756606   0.318248   0.003841  -0.002134  -0.000097  -0.019707
      6      -0.000286  -0.003023   0.331148  -0.325276  -0.593627   0.000339
      7       0.000073  -0.000387   0.082345   0.274599   0.051662   0.000083
      8       0.096276  -0.374917  -0.003765   0.001237   0.000211   0.920910
      9      -0.000053  -0.000379   0.039458  -0.048558   0.057038  -0.000017
     10      -0.000102   0.000097  -0.054420  -0.303932   0.030083   0.000004
     11      -0.006656  -0.039698  -0.000418   0.000183  -0.000029  -0.038407
     12       0.380300  -0.000146  -0.326819   0.355080  -0.181223  -0.014489
     13       0.215882  -0.569676  -0.545000   0.223633  -0.276466  -0.262807
     14       0.127923   0.220325  -0.000297   0.006092  -0.003716   0.073275
     15      -0.379430   0.006185  -0.327356   0.356060  -0.181235   0.014572
     16      -0.214964   0.578562  -0.533891   0.220510  -0.276426   0.262829
     17       0.128304   0.220173   0.005285  -0.008231   0.003962   0.073213
                 12         13         14         15         16         17    
      0      -0.014663   0.059374  -0.022059   0.002893  -0.050829  -0.000001
      1      -0.008327   0.029462  -0.050840   0.002905   0.042330   0.000002
      2       0.000007  -0.000025   0.000013  -0.000001   0.000015  -0.000026
      3       0.063975  -0.259991   0.247545  -0.040889   0.870339   0.000021
      4       0.143385  -0.585315  -0.144544   0.021945  -0.402736  -0.000009
      5      -0.000045   0.000159  -0.000076   0.000012  -0.000288   0.000246
      6       0.170744  -0.720514   0.102742  -0.003576  -0.064173  -0.000003
      7      -0.021009   0.104743   0.947552  -0.068846  -0.266787  -0.000020
      8      -0.000068   0.000248  -0.000129   0.000009   0.000051  -0.000664
      9      -0.055031  -0.009706   0.003326   0.039444   0.000998  -0.000022
     10       0.042421   0.012247  -0.002420  -0.029463  -0.000803  -0.000015
     11       0.000023   0.000005  -0.000001   0.000004   0.000002  -0.070532
     12       0.435926   0.096139  -0.026457  -0.313376  -0.007604  -0.343803
     13      -0.331733  -0.090706   0.021168   0.234188   0.005198   0.255891
     14       0.412603   0.100299   0.044895   0.584797   0.015362   0.560478
     15       0.435537   0.096039  -0.026510  -0.314136  -0.007645   0.344145
     16      -0.331795  -0.090735   0.021165   0.234245   0.005215  -0.255658
     17      -0.412966  -0.100377  -0.044884  -0.584863  -0.015393   0.559833


-----------
IR SPECTRUM  
-----------

 Mode    freq (cm**-1)   T**2         TX         TY         TZ
-------------------------------------------------------------------
   6:       102.55  151.641281  (  0.011896   0.017654  12.314253)
   7:       145.34   17.476833  (  0.051441   0.124416   4.178362)
   8:       151.95  167.140687  ( -4.867022 -11.977078   0.048943)
   9:       186.22  116.232484  (  3.354294  10.246015  -0.019325)
  10:       360.16   52.275323  ( -7.059322   1.562458   0.003620)
  11:       624.31   94.003512  (  0.004025   0.001052   9.695540)
  12:      1633.70   91.288810  (  8.479288  -4.403461  -0.003630)
  13:      1654.27   38.226466  ( -4.691835  -4.026555   0.001975)
  14:      3701.58  320.440034  ( -0.977236  17.874145  -0.001089)
  15:      3806.18   10.913396  ( -2.934027   1.518183  -0.001660)
  16:      3893.44   97.618158  (  4.046131  -9.013711  -0.001025)
  17:      3912.83   92.128263  (  0.003903   0.001097   9.598346)

The first frequency considered to be a vibration is 6
The total number of vibrations considered is 12


--------------------------
THERMOCHEMISTRY AT 298.15K
--------------------------

Temperature         ... 298.15 K
Pressure            ... 1.00 atm
Total Mass          ... 36.03 AMU

Throughout the following assumptions are being made:
  (1) The electronic state is orbitally nondegenerate
  (2) There are no thermally accessible electronically excited states
  (3) Hindered rotations indicated by low frequency modes are not
      treated as such but are treated as vibrations and this may
      cause some error
  (4) All equations used are the standard statistical mechanics
      equations for an ideal gas
  (5) All vibrations are strictly harmonic

freq.     102.55  E(vib)   ...       0.46 
freq.     145.34  E(vib)   ...       0.41 
freq.     151.95  E(vib)   ...       0.40 
freq.     186.22  E(vib)   ...       0.37 
freq.     360.16  E(vib)   ...       0.22 
freq.     624.31  E(vib)   ...       0.09 
freq.    1633.70  E(vib)   ...       0.00 
freq.    1654.27  E(vib)   ...       0.00 
freq.    3701.58  E(vib)   ...       0.00 
freq.    3806.18  E(vib)   ...       0.00 
freq.    3893.44  E(vib)   ...       0.00 
freq.    3912.83  E(vib)   ...       0.00 

------------
INNER ENERGY
------------

The inner energy is: U= E(el) + E(ZPE) + E(vib) + E(rot) + E(trans)
    E(el)   - is the total energy from the electronic structure calculation
              = E(kin-el) + E(nuc-el) + E(el-el) + E(nuc-nuc)
    E(ZPE)  - the the zero temperature vibrational energy from the frequency calculation
    E(vib)  - the the finite temperature correction to E(ZPE) due to population
              of excited vibrational states
    E(rot)  - is the rotational thermal energy
    E(trans)- is the translational thermal energy

Summary of contributions to the inner energy U:
Electronic energy                ...   -152.83787220 Eh
Zero point energy                ...      0.04595641 Eh      28.84 kcal/mol
Thermal vibrational correction   ...      0.00310657 Eh       1.95 kcal/mol
Thermal rotational correction    ...      0.00141627 Eh       0.89 kcal/mol
Thermal translational correction ...      0.00141627 Eh       0.89 kcal/mol
-----------------------------------------------------------------------
Total thermal energy                   -152.78597668 Eh


Summary of corrections to the electronic energy:
(perhaps to be used in another calculation)
Total thermal correction                  0.00593911 Eh       3.73 kcal/mol
Non-thermal (ZPE) correction              0.04595641 Eh      28.84 kcal/mol
-----------------------------------------------------------------------
Total correction                          0.05189552 Eh      32.56 kcal/mol


--------
ENTHALPY
--------

The enthalpy is H = U + kB*T
                kB is Boltzmann's constant
Total free energy                 ...   -152.78597668 Eh 
Thermal Enthalpy correction       ...      0.00094421 Eh       0.59 kcal/mol
-----------------------------------------------------------------------
Total Enthalpy                    ...   -152.78503248 Eh


Note: Only C1 symmetry has been detected, increase convergence thresholds 
      if your molecule has a higher symmetry. Symmetry factor of 1.0 is   
      used for the rotational entropy correction. 
 

Note: Rotational entropy computed according to Herzberg 
Infrared and Raman Spectra, Chapter V,1, Van Nostrand Reinhold, 1945 
Point Group:  C1, Symmetry Number:   1  
Rotational constants in cm-1:     7.265308     0.214936     0.214847 

Vibrational entropy computed according to the QRRHO of S. Grimme
Chem.Eur.J. 2012 18 9955


-------
ENTROPY
-------

The entropy contributions are T*S = T*(S(el)+S(vib)+S(rot)+S(trans))
     S(el)   - electronic entropy
     S(vib)  - vibrational entropy
     S(rot)  - rotational entropy
     S(trans)- translational entropy
The entropies will be listed as mutliplied by the temperature to get
units of energy

Electronic entropy                ...      0.00000000 Eh      0.00 kcal/mol
Vibrational entropy               ...      0.00581751 Eh      3.65 kcal/mol
Rotational entropy                ...      0.01002640 Eh      6.29 kcal/mol
Translational entropy             ...      0.01742549 Eh     10.93 kcal/mol
-----------------------------------------------------------------------
Final entropy term                ...      0.03326939 Eh     20.88 kcal/mol

In case the symmetry of your molecule has not been determined correctly
or in case you have a reason to use a different symmetry number we print 
out the resulting rotational entropy values for sn=1,12 :
 --------------------------------------------------------
|  sn= 1 | S(rot)=       0.01002640 Eh      6.29 kcal/mol|
|  sn= 2 | S(rot)=       0.00937194 Eh      5.88 kcal/mol|
|  sn= 3 | S(rot)=       0.00898911 Eh      5.64 kcal/mol|
|  sn= 4 | S(rot)=       0.00871748 Eh      5.47 kcal/mol|
|  sn= 5 | S(rot)=       0.00850679 Eh      5.34 kcal/mol|
|  sn= 6 | S(rot)=       0.00833465 Eh      5.23 kcal/mol|
|  sn= 7 | S(rot)=       0.00818910 Eh      5.14 kcal/mol|
|  sn= 8 | S(rot)=       0.00806303 Eh      5.06 kcal/mol|
|  sn= 9 | S(rot)=       0.00795182 Eh      4.99 kcal/mol|
|  sn=10 | S(rot)=       0.00785234 Eh      4.93 kcal/mol|
|  sn=11 | S(rot)=       0.00776235 Eh      4.87 kcal/mol|
|  sn=12 | S(rot)=       0.00768019 Eh      4.82 kcal/mol|
 --------------------------------------------------------


-------------------
GIBBS FREE ENERGY
-------------------

The Gibbs free energy is G = H - T*S

Total enthalpy                    ...   -152.78503248 Eh 
Total entropy correction          ...     -0.03326939 Eh    -20.88 kcal/mol
-----------------------------------------------------------------------
Final Gibbs free energy         ...   -152.81830187 Eh

For completeness - the Gibbs free energy minus the electronic energy
G-E(el)                           ...      0.01957034 Eh     12.28 kcal/mol


Total Time for Numerical Frequencies  :       127.720 sec

Timings for individual modules:

Sum of individual times         ...      316.181 sec (=   5.270 min)
GTO integral calculation        ...       21.813 sec (=   0.364 min)   6.9 %
SCF iterations                  ...       78.496 sec (=   1.308 min)  24.8 %
MP2 module                      ...      214.421 sec (=   3.574 min)  67.8 %
Geometry relaxation             ...        1.451 sec (=   0.024 min)   0.5 %
                             ****ORCA TERMINATED NORMALLY****
TOTAL RUN TIME: 0 days 0 hours 7 minutes 20 seconds 54 msec
