
                                 *****************
                                 * O   R   C   A *
                                 *****************

           --- An Ab Initio, DFT and Semiempirical electronic structure package ---

                  #######################################################
                  #                        -***-                        #
                  #          Department of theory and spectroscopy      #
                  #               Directorship: Frank Neese             #
                  #        Max Planck Institute fuer Kohlenforschung    #
                  #                Kaiser Wilhelm Platz 1               #
                  #                 D-45470 Muelheim/Ruhr               #
                  #                      Germany                        #
                  #                                                     #
                  #                  All rights reserved                #
                  #                        -***-                        #
                  #######################################################


                         Program Version 4.2.0 -  RELEASE  -


 With contributions from (in alphabetic order):
   Daniel Aravena         : Magnetic Suceptibility
   Michael Atanasov       : Ab Initio Ligand Field Theory (pilot matlab implementation)
   Alexander A. Auer      : GIAO ZORA, VPT2
   Ute Becker             : Parallelization
   Giovanni Bistoni       : ED, misc. LED, open-shell LED, HFLED
   Martin Brehm           : Molecular dynamics
   Dmytro Bykov           : SCF Hessian
   Vijay G. Chilkuri      : MRCI spin determinant printing, contributions to CSF-ICE
   Dipayan Datta          : RHF DLPNO-CCSD density
   Achintya Kumar Dutta   : EOM-CC, STEOM-CC
   Dmitry Ganyushin       : Spin-Orbit,Spin-Spin,Magnetic field MRCI
   Miquel Garcia          : C-PCM Hessian, Gaussian charge scheme
   Yang Guo               : DLPNO-NEVPT2, CIM, IAO-localization
   Andreas Hansen         : Spin unrestricted coupled pair/coupled cluster methods
   Benjamin Helmich-Paris : CASSCF linear response (MC-RPA)
   Lee Huntington         : MR-EOM, pCC
   Robert Izsak           : Overlap fitted RIJCOSX, COSX-SCS-MP3, EOM
   Christian Kollmar      : KDIIS, OOCD, Brueckner-CCSD(T), CCSD density
   Simone Kossmann        : Meta GGA functionals, TD-DFT gradient, OOMP2, MP2 Hessian
   Martin Krupicka        : AUTO-CI
   Lucas Lang             : DCDCAS
   Dagmar Lenk            : GEPOL surface, SMD
   Dimitrios Liakos       : Extrapolation schemes; Compound Job, initial MDCI parallelization
   Dimitrios Manganas     : Further ROCIS development; embedding schemes
   Dimitrios Pantazis     : SARC Basis sets
   Taras Petrenko         : DFT Hessian,TD-DFT gradient, ASA, ECA, R-Raman, ABS, FL, XAS/XES, NRVS
   Peter Pinski           : DLPNO-MP2, DLPNO-MP2 Gradient
   Christoph Reimann      : Effective Core Potentials
   Marius Retegan         : Local ZFS, SOC
   Christoph Riplinger    : Optimizer, TS searches, QM/MM, DLPNO-CCSD(T), (RO)-DLPNO pert. Triples
   Tobias Risthaus        : Range-separated hybrids, TD-DFT gradient, RPA, STAB
   Michael Roemelt        : Original ROCIS implementation
   Masaaki Saitow         : Open-shell DLPNO-CCSD energy and density
   Barbara Sandhoefer     : DKH picture change effects
   Avijit Sen             : IP-ROCIS
   Kantharuban Sivalingam : CASSCF convergence, NEVPT2, FIC-MRCI
   Bernardo de Souza      : ESD, SOC TD-DFT
   Georgi Stoychev        : AutoAux, RI-MP2 NMR
   Willem Van den Heuvel  : Paramagnetic NMR
   Boris Wezisla          : Elementary symmetry handling
   Frank Wennmohs         : Technical directorship


 We gratefully acknowledge several colleagues who have allowed us to
 interface, adapt or use parts of their codes:
   Stefan Grimme, W. Hujo, H. Kruse,             : VdW corrections, initial TS optimization,
                  C. Bannwarth                     DFT functionals, gCP, sTDA/sTD-DF
   Ed Valeev, F. Pavosevic, A. Kumar             : LibInt (2-el integral package), F12 methods
   Garnet Chan, S. Sharma, J. Yang, R. Olivares  : DMRG
   Ulf Ekstrom                                   : XCFun DFT Library
   Mihaly Kallay                                 : mrcc  (arbitrary order and MRCC methods)
   Andreas Klamt, Michael Diedenhofen            : otool_cosmo (COSMO solvation model)
   Jiri Pittner, Ondrej Demel                    : Mk-CCSD
   Frank Weinhold                                : gennbo (NPA and NBO analysis)
   Christopher J. Cramer and Donald G. Truhlar   : smd solvation model
   Lars Goerigk                                  : TD-DFT with DH, B97 family of functionals
   V. Asgeirsson, H. Jonsson                     : NEB implementation
   FAccTs GmbH                                   : IRC, NEB, NEB-TS, Multilevel, MM, QM/MM, CI optimization
   S Lehtola, MJT Oliveira, MAL Marques          : LibXC Library


 Your calculation uses the libint2 library for the computation of 2-el integrals
 For citations please refer to: http://libint.valeyev.net

 Your ORCA version has been built with support for libXC version: 4.2.3
 For citations please refer to: https://tddft.org/programs/libxc/

 This ORCA versions uses:
   CBLAS   interface :  Fast vector & matrix operations
   LAPACKE interface :  Fast linear algebra routines
   SCALAPACK package :  Parallel linear algebra routines


Your calculation utilizes the atom-pairwise dispersion correction
with the Becke-Johnson damping scheme (D3BJ)
Cite in your paper:
S.Grimme, S.Ehrlich, L.Goerigk, J Comput Chem, (2011), 32, 1456–1465 
S.Grimme, J.Antony, S.Ehrlich and H.Krieg, J.Chem.Phys., 132, (2010), 154104 
   

----- Orbital basis set information -----
Your calculation utilizes the basis: aug-cc-pV(T+d)Z 
             Al - Ar: T.H. Dunning, Jr., K. A. Peterson and A. K. Wilson, J. Chem. Phys.
                      114, 9244 (2001)

----- AuxC basis set information -----
Your calculation utilizes the auxiliary basis: def2-TZVP/C
  H-La, Hf-Rn : A. Hellweg, C. Hattig, S. Hofener and W. Klopper, Theor. Chem. Acc. 117, 587 (2007).
        Ce-Lu : J. Chmela and M. E. Harding, Mol. Phys. (2018).

----- AuxJK basis set information -----
Your calculation utilizes the auxiliary basis: def2/JK
   H-Ba, Hf-Rn: F. Weigend, J. Comput. Chem. 29, 167 (2008).

================================================================================
                                        WARNINGS
                       Please study these warnings very carefully!
================================================================================


WARNING: The frozen-core approximation for MP2-gradient calculations is turned on by default.

WARNING: Geometry Optimization
  ===> : Switching off AutoStart
         For restart on a previous wavefunction, please use MOREAD

WARNING: The frozen-core approximation is turned on by default for 
         the MP2 part of double-hybrid DFT.

INFO   : the flag for use of LIBINT has been found!

================================================================================
                                       INPUT FILE
================================================================================
NAME = 03_H2O_3.in
|  1> #
|  2> # 03_H2O_3 b2-plyp/aug-cc-pvt(+d)z
|  3> #
|  4> ! rijk ri-b2plyp d3bj aug-cc-pvt(+d)z def2/jk def2-tzvp/c grid4 nofinalgrid opt xyzfile numfreq
|  5> 
|  6> *xyz 0 1
|  7> O	-1.476811	-0.647642	-0.082126
|  8> H	-0.613415	-1.087457	-0.037065
|  9> H	-2.026236	-1.086841	0.568502
| 10> O	1.305672	-0.945117	-0.091536
| 11> H	1.973931	-1.196903	0.547209
| 12> H	1.22684	0.019839	-0.021857
| 13> O	0.169678	1.599733	0.108456
| 14> H	-0.629586	1.051269	0.060063
| 15> H	0.080159	2.244313	-0.595195
| 16> *
| 17> 
| 18> %maxcore 5000
| 19> 
| 20> %pal
| 21> nprocs 24
| 22> end
| 23> 
| 24> 
| 25>                          ****END OF INPUT****
================================================================================

                       *****************************
                       * Geometry Optimization Run *
                       *****************************

Geometry optimization settings:
Update method            Update   .... BFGS
Choice of coordinates    CoordSys .... Z-matrix Internals
Initial Hessian          InHess   .... Almoef's Model

Convergence Tolerances:
Energy Change            TolE     ....  5.0000e-06 Eh
Max. Gradient            TolMAXG  ....  3.0000e-04 Eh/bohr
RMS Gradient             TolRMSG  ....  1.0000e-04 Eh/bohr
Max. Displacement        TolMAXD  ....  4.0000e-03 bohr
RMS Displacement         TolRMSD  ....  2.0000e-03 bohr
Strict Convergence                ....  False
------------------------------------------------------------------------------
                        ORCA OPTIMIZATION COORDINATE SETUP
------------------------------------------------------------------------------

The optimization will be done in new redundant internal coordinates
Making redundant internal coordinates   ...  (new redundants) done
Evaluating the initial hessian          ...  (Almloef) done
Evaluating the coordinates              ...  done
Calculating the B-matrix                .... done
Calculating the G-matrix                .... done
Diagonalizing the G-matrix              .... done
The first mode is                       ....   69
The number of degrees of freedom        ....   21

    -----------------------------------------------------------------
                    Redundant Internal Coordinates


    -----------------------------------------------------------------
         Definition                    Initial Value    Approx d2E/dq
    -----------------------------------------------------------------
      1. B(H   1,O   0)                  0.9700         0.501182   
      2. B(H   2,O   0)                  0.9582         0.523473   
      3. B(O   3,H   1)                  1.9251         0.015003   
      4. B(H   4,O   3)                  0.9581         0.523592   
      5. B(H   5,H   1)                  2.1478         0.001415   
      6. B(H   5,O   3)                  0.9707         0.499960   
      7. B(O   6,H   5)                  1.9054         0.016129   
      8. B(H   7,O   0)                  1.9038         0.016228   
      9. B(H   7,H   5)                  2.1253         0.001537   
     10. B(H   7,O   6)                  0.9706         0.500180   
     11. B(H   7,H   1)                  2.1410         0.001451   
     12. B(H   8,O   6)                  0.9584         0.522930   
     13. A(H   1,O   0,H   2)          105.7245         0.320256   
     14. A(H   1,O   0,H   7)           90.2888         0.194349   
     15. A(H   2,O   0,H   7)          127.8445         0.195392   
     16. A(O   0,H   1,O   3)          148.4799         0.192494   
     17. A(O   3,H   1,H   5)           26.8674         0.111178   
     18. A(O   0,H   1,H   7)           62.7710         0.138348   
     19. A(O   3,H   1,H   7)           86.2705         0.111303   
     20. A(H   5,H   1,H   7)           59.4119         0.099575   
     21. A(O   0,H   1,H   5)          121.9527         0.138071   
     22. A(H   1,O   3,H   4)          131.0713         0.193524   
     23. A(H   1,O   3,H   5)           89.4564         0.192437   
     24. A(H   4,O   3,H   5)          105.6664         0.320141   
     25. A(H   1,H   5,O   3)           63.6762         0.138044   
     26. A(H   1,H   5,H   7)           60.1355         0.099714   
     27. A(O   3,H   5,H   7)          123.7906         0.138969   
     28. A(H   1,H   5,O   6)           87.2821         0.111545   
     29. A(O   6,H   5,H   7)           27.1690         0.111970   
     30. A(O   3,H   5,O   6)          150.9551         0.194146   
     31. A(H   7,O   6,H   8)          105.4575         0.320097   
     32. A(H   5,O   6,H   8)          124.0032         0.195220   
     33. A(H   5,O   6,H   7)           89.1365         0.194156   
     34. A(H   1,H   7,H   5)           60.4525         0.099774   
     35. A(O   0,H   7,H   5)           87.2922         0.112001   
     36. A(O   0,H   7,O   6)          150.9865         0.194302   
     37. A(H   5,H   7,O   6)           63.6945         0.138974   
     38. A(O   0,H   7,H   1)           26.9402         0.111703   
     39. A(H   1,H   7,O   6)          124.0937         0.138326   
     40. D(O   3,H   1,O   0,H   7)    -11.7716         0.380639   
     41. D(H   7,H   1,O   0,H   2)   -129.7025         0.380639   
     42. D(H   5,H   1,O   0,H   7)     -5.4848         0.380639   
     43. D(H   5,H   1,O   0,H   2)   -135.1873         0.380639   
     44. D(O   3,H   1,O   0,H   2)   -141.4741         0.380639   
     45. D(H   5,O   3,H   1,O   0)     11.8642         0.001643   
     46. D(H   4,O   3,H   1,O   0)    122.3477         0.001643   
     47. D(H   4,O   3,H   1,H   5)    110.4835         0.001643   
     48. D(H   5,O   3,H   1,H   7)      1.3903         0.001643   
     49. D(H   4,O   3,H   1,H   7)    111.8738         0.001643   
     50. D(O   6,H   5,H   1,H   7)      1.1646         0.001523   
     51. D(O   6,H   5,H   1,O   0)      6.8305         0.001523   
     52. D(O   3,H   5,H   1,H   7)   -178.3883         0.001523   
     53. D(O   6,H   5,H   1,O   3)    179.5529         0.001523   
     54. D(O   6,H   5,O   3,H   1)     -0.9199         0.378251   
     55. D(H   7,H   5,O   3,H   4)   -134.5033         0.378251   
     56. D(O   6,H   5,O   3,H   4)   -133.7414         0.378251   
     57. D(H   1,H   5,O   3,H   4)   -132.8215         0.378251   
     58. D(O   3,H   5,H   1,O   0)   -172.7224         0.001523   
     59. D(H   7,H   5,O   3,H   1)     -1.6818         0.378251   
     60. D(H   7,H   5,H   1,O   3)    178.3883         0.001523   
     61. D(H   7,H   5,H   1,O   0)      5.6659         0.001523   
     62. D(H   8,O   6,H   5,H   7)   -108.1417         0.001665   
     63. D(H   8,O   6,H   5,H   1)   -110.3539         0.001665   
     64. D(H   7,O   6,H   5,H   1)     -2.2122         0.001665   
     65. D(H   8,O   6,H   5,O   3)   -109.5285         0.001665   
     66. D(H   7,O   6,H   5,O   3)     -1.3868         0.001665   
     67. D(H   5,H   7,O   0,H   1)      4.7063         0.001667   
     68. D(H   1,H   7,O   0,H   2)    110.3109         0.001667   
     69. D(O   6,H   7,O   0,H   2)    114.8337         0.001667   
     70. D(O   6,H   7,O   0,H   1)      4.5228         0.001667   
     71. D(H   5,H   7,O   6,H   8)    125.1784         0.378680   
     72. D(H   1,H   7,O   6,H   5)      2.6771         0.378680   
     73. D(H   1,H   7,O   6,H   8)    127.8555         0.378680   
     74. D(O   0,H   7,O   6,H   5)      0.2045         0.378680   
     75. D(H   1,H   7,H   5,O   6)   -177.4517         0.001528   
     76. D(H   1,H   7,H   5,O   3)      1.7382         0.001528   
     77. D(O   0,H   7,H   5,O   6)   -179.9007         0.001528   
     78. D(O   0,H   7,H   5,H   1)     -2.4490         0.001528   
     79. D(O   0,H   7,H   5,O   3)     -0.7108         0.001528   
     80. D(O   6,H   7,H   5,H   1)    177.4517         0.001528   
     81. D(O   6,H   7,H   5,O   3)    179.1899         0.001528   
     82. D(H   5,H   7,H   1,O   3)     -0.7298         0.001525   
     83. D(H   5,H   7,H   1,O   0)   -174.5942         0.001525   
     84. D(O   0,H   7,H   1,H   5)    174.5942         0.001525   
     85. D(O   0,H   7,O   6,H   8)    125.3829         0.378680   
     86. D(O   0,H   7,H   1,O   3)    173.8644         0.001525   
     87. D(O   6,H   7,H   1,H   5)     -2.7587         0.001525   
     88. D(O   6,H   7,H   1,O   3)     -3.4885         0.001525   
     89. D(O   6,H   7,H   1,O   0)   -177.3529         0.001525   
     90. D(H   5,H   7,O   0,H   2)    115.0172         0.001667   
    -----------------------------------------------------------------

Number of atoms                         .... 9
Number of degrees of freedom            .... 90

         *************************************************************
         *                GEOMETRY OPTIMIZATION CYCLE   1            *
         *************************************************************
---------------------------------
CARTESIAN COORDINATES (ANGSTROEM)
---------------------------------
  O     -1.476811   -0.647642   -0.082126
  H     -0.613415   -1.087457   -0.037065
  H     -2.026236   -1.086841    0.568502
  O      1.305672   -0.945117   -0.091536
  H      1.973931   -1.196903    0.547209
  H      1.226840    0.019839   -0.021857
  O      0.169678    1.599733    0.108456
  H     -0.629586    1.051269    0.060063
  H      0.080159    2.244313   -0.595195

----------------------------
CARTESIAN COORDINATES (A.U.)
----------------------------
  NO LB      ZA    FRAG     MASS         X           Y           Z
   0 O     8.0000    0    15.999   -2.790768   -1.223866   -0.155196
   1 H     1.0000    0     1.008   -1.159186   -2.054996   -0.070043
   2 H     1.0000    0     1.008   -3.829031   -2.053832    1.074313
   3 O     8.0000    0    15.999    2.467363   -1.786012   -0.172978
   4 H     1.0000    0     1.008    3.730189   -2.261819    1.034075
   5 H     1.0000    0     1.008    2.318392    0.037490   -0.041304
   6 O     8.0000    0    15.999    0.320645    3.023057    0.204952
   7 H     1.0000    0     1.008   -1.189745    1.986611    0.113503
   8 H     1.0000    0     1.008    0.151479    4.241137   -1.124756

--------------------------------
INTERNAL COORDINATES (ANGSTROEM)
--------------------------------
 O      0   0   0     0.000000000000     0.00000000     0.00000000
 H      1   0   0     0.970010505491     0.00000000     0.00000000
 H      1   2   0     0.958165114482   105.72451778     0.00000000
 O      2   1   3     1.925129262935   148.47990843   218.52590542
 H      4   2   1     0.958103050774   131.07133552   122.34770223
 H      4   2   1     0.970674883368    89.45639618    11.86423463
 O      6   4   2     1.905423318701   150.95508604   359.08013207
 H      7   6   4     0.970555296437    89.13650572   358.61319453
 H      7   6   4     0.958447576846   124.00318504   250.47153616

---------------------------
INTERNAL COORDINATES (A.U.)
---------------------------
 O      0   0   0     0.000000000000     0.00000000     0.00000000
 H      1   0   0     1.833054202404     0.00000000     0.00000000
 H      1   2   0     1.810669657448   105.72451778     0.00000000
 O      2   1   3     3.637967079345   148.47990843   218.52590542
 H      4   2   1     1.810552374037   131.07133552   122.34770223
 H      4   2   1     1.834309694641    89.45639618    11.86423463
 O      6   4   2     3.600728241532   150.95508604   359.08013207
 H      7   6   4     1.834083708092    89.13650572   358.61319453
 H      7   6   4     1.811203433959   124.00318504   250.47153616

---------------------
BASIS SET INFORMATION
---------------------
There are 2 groups of distinct atoms

 Group   1 Type O   : 19s6p3d2f contracted to 5s4p3d2f pattern {88111/3111/111/11}
 Group   2 Type H   : 6s3p2d contracted to 4s3p2d pattern {3111/111/11}

Atom   0O    basis set group =>   1
Atom   1H    basis set group =>   2
Atom   2H    basis set group =>   2
Atom   3O    basis set group =>   1
Atom   4H    basis set group =>   2
Atom   5H    basis set group =>   2
Atom   6O    basis set group =>   1
Atom   7H    basis set group =>   2
Atom   8H    basis set group =>   2
---------------------------------
AUXILIARY/C BASIS SET INFORMATION
---------------------------------
There are 2 groups of distinct atoms

 Group   1 Type O   : 8s6p5d3f1g contracted to 8s6p4d3f1g pattern {11111111/111111/2111/111/1}
 Group   2 Type H   : 4s3p2d contracted to 4s2p1d pattern {1111/21/2}

Atom   0O    basis set group =>   1
Atom   1H    basis set group =>   2
Atom   2H    basis set group =>   2
Atom   3O    basis set group =>   1
Atom   4H    basis set group =>   2
Atom   5H    basis set group =>   2
Atom   6O    basis set group =>   1
Atom   7H    basis set group =>   2
Atom   8H    basis set group =>   2
----------------------------------
AUXILIARY/JK BASIS SET INFORMATION
----------------------------------
There are 2 groups of distinct atoms

 Group   1 Type O   : 14s10p6d2f1g contracted to 10s8p4d2f1g pattern {5111111111/31111111/3111/11/1}
 Group   2 Type H   : 4s2p2d contracted to 2s2p2d pattern {31/11/11}

Atom   0O    basis set group =>   1
Atom   1H    basis set group =>   2
Atom   2H    basis set group =>   2
Atom   3O    basis set group =>   1
Atom   4H    basis set group =>   2
Atom   5H    basis set group =>   2
Atom   6O    basis set group =>   1
Atom   7H    basis set group =>   2
Atom   8H    basis set group =>   2


           ************************************************************
           *        Program running with 24 parallel MPI-processes    *
           *              working on a common directory               *
           ************************************************************
------------------------------------------------------------------------------
                           ORCA GTO INTEGRAL CALCULATION
                           -- RI-GTO INTEGRALS CHOSEN --
------------------------------------------------------------------------------

                         BASIS SET STATISTICS AND STARTUP INFO

Gaussian basis set:
 # of primitive gaussian shells          ...  156
 # of primitive gaussian functions       ...  348
 # of contracted shells                  ...   96
 # of contracted basis functions         ...  276
 Highest angular momentum                ...    3
 Maximum contraction depth               ...    8
Auxiliary gaussian basis set:
 # of primitive gaussian shells          ...  147
 # of primitive gaussian functions       ...  411
 # of contracted shells                  ...  111
 # of contracted aux-basis functions     ...  339
 Highest angular momentum                ...    4
 Maximum contraction depth               ...    5
Ratio of auxiliary to basis functions    ...  1.23
Integral package used                  ... LIBINT
 One Electron integrals                  ... done
 Ordering auxiliary basis shells         ... done
 Integral threshhold             Thresh  ...  2.500e-11
 Primitive cut-off               TCut    ...  2.500e-12
 Pre-screening matrix                    ... done
 Shell pair data                         ... 
 Ordering of the shell pairs             ... done (   0.001 sec) 4594 of 4656 pairs
 Determination of significant pairs      ... done (   0.000 sec)
 Creation of shell pair data             ... done (   0.001 sec)
 Storage of shell pair data              ... done (   0.061 sec)
 Shell pair data done in (   0.062 sec)
 Computing two index integrals           ... done
 Cholesky decomposition of the V-matrix  ... done


Timings:
 Total evaluation time                   ...   0.288 sec (  0.005 min)
 One electron matrix time                ...   0.035 sec (  0.001 min) = 12.2%
 Schwartz matrix evaluation time         ...   0.119 sec (  0.002 min) = 41.3%
 Two index repulsion integral time       ...   0.002 sec (  0.000 min) =  0.7%
 Cholesky decomposition of V             ...   0.043 sec (  0.001 min) = 15.1%
 Three index repulsion integral time     ...   0.000 sec (  0.000 min) =  0.0%



           ************************************************************
           *        Program running with 24 parallel MPI-processes    *
           *              working on a common directory               *
           ************************************************************
-------------------------------------------------------------------------------
                                 ORCA SCF
-------------------------------------------------------------------------------

------------
SCF SETTINGS
------------
Hamiltonian:
 Density Functional     Method          .... DFT(GTOs)
 Exchange Functional    Exchange        .... B88
   X-Alpha parameter    XAlpha          ....  0.666667
   Becke's b parameter  XBeta           ....  0.004200
 Correlation Functional Correlation     .... LYP
 LDA part of GGA corr.  LDAOpt          .... VWN-3
 Gradients option       PostSCFGGA      .... off
 Hybrid DFT is turned on
   Fraction HF Exchange ScalHFX         ....  0.530000
   Scaling of DF-GGA-X  ScalDFX         ....  0.470000
   Scaling of DF-GGA-C  ScalDFC         ....  0.730000
   Scaling of DF-LDA-C  ScalLDAC        ....  0.730000
   Perturbative correction              ....  0.270000
   Density functional embedding theory  .... OFF
 RI-approximation to the Coulomb term is turned on
   Number of auxiliary basis functions  .... 339
   RI-JK (J+K treated both via RI)      .... on


General Settings:
 Integral files         IntName         .... 03_H2O_3
 Hartree-Fock type      HFTyp           .... RHF
 Total Charge           Charge          ....    0
 Multiplicity           Mult            ....    1
 Number of Electrons    NEL             ....   30
 Basis Dimension        Dim             ....  276
 Nuclear Repulsion      ENuc            ....     84.5280316478 Eh

Convergence Acceleration:
 DIIS                   CNVDIIS         .... on
   Start iteration      DIISMaxIt       ....    12
   Startup error        DIISStart       ....  0.200000
   # of expansion vecs  DIISMaxEq       ....     5
   Bias factor          DIISBfac        ....   1.050
   Max. coefficient     DIISMaxC        ....  10.000
 Newton-Raphson         CNVNR           .... off
 SOSCF                  CNVSOSCF        .... on
   Start iteration      SOSCFMaxIt      ....   150
   Startup grad/error   SOSCFStart      ....  0.003300
 Level Shifting         CNVShift        .... on
   Level shift para.    LevelShift      ....    0.2500
   Turn off err/grad.   ShiftErr        ....    0.0010
 Zerner damping         CNVZerner       .... off
 Static damping         CNVDamp         .... on
   Fraction old density DampFac         ....    0.7000
   Max. Damping (<1)    DampMax         ....    0.9800
   Min. Damping (>=0)   DampMin         ....    0.0000
   Turn off err/grad.   DampErr         ....    0.1000
 Fernandez-Rico         CNVRico         .... off

SCF Procedure:
 Maximum # iterations   MaxIter         ....   125
 SCF integral mode      SCFMode         .... Direct
   Integral package                     .... LIBINT
 Reset frequency        DirectResetFreq ....    20
 Integral Threshold     Thresh          ....  2.500e-11 Eh
 Primitive CutOff       TCut            ....  2.500e-12 Eh

Convergence Tolerance:
 Convergence Check Mode ConvCheckMode   .... Total+1el-Energy
 Convergence forced     ConvForced      .... 0
 Energy Change          TolE            ....  1.000e-08 Eh
 1-El. energy change                    ....  1.000e-05 Eh
 Orbital Gradient       TolG            ....  1.000e-05
 Orbital Rotation angle TolX            ....  1.000e-05
 DIIS Error             TolErr          ....  5.000e-07


Diagonalization of the overlap matrix:
Smallest eigenvalue                        ... 1.498e-04
Time for diagonalization                   ...    0.028 sec
Threshold for overlap eigenvalues          ... 1.000e-08
Number of eigenvalues below threshold      ... 0
Time for construction of square roots      ...    0.009 sec
Total time needed                          ...    0.037 sec

-------------------
DFT GRID GENERATION
-------------------

General Integration Accuracy     IntAcc      ...  4.670
Radial Grid Type                 RadialGrid  ... Gauss-Chebyshev
Angular Grid (max. acc.)         AngularGrid ... Lebedev-302
Angular grid pruning method      GridPruning ... 3 (G Style)
Weight generation scheme         WeightScheme... Becke
Basis function cutoff            BFCut       ...    1.0000e-11
Integration weight cutoff        WCut        ...    1.0000e-14
Grids for H and He will be reduced by one unit

# of grid points (after initial pruning)     ...  39000 (   0.0 sec)
# of grid points (after weights+screening)   ...  37273 (   0.0 sec)
nearest neighbour list constructed           ...    0.0 sec
Grid point re-assignment to atoms done       ...    0.0 sec
Grid point division into batches done        ...    0.1 sec
Reduced shell lists constructed in    0.1 sec

Total number of grid points                  ...    37273
Total number of batches                      ...      587
Average number of points per batch           ...       63
Average number of grid points per atom       ...     4141
Average number of shells per batch           ...    67.88 (70.71%)
Average number of basis functions per batch  ...   188.81 (68.41%)
Average number of large shells per batch     ...    56.00 (82.49%)
Average number of large basis fcns per batch ...   152.69 (80.87%)
Average number of aux-shells per batch       ...    67.88 (61.16%)
Average number of aux functions per batch    ...   188.81 (55.70%)
Maximum spatial batch extension              ...   9.52, 16.88, 10.93 au
Average spatial batch extension              ...   0.14,  0.16,  0.15 au

Time for grid setup =    0.191 sec

------------------------------
INITIAL GUESS: MODEL POTENTIAL
------------------------------
Loading Hartree-Fock densities                     ... done
Calculating cut-offs                               ... done
Setting up the integral package                    ... done
Initializing the effective Hamiltonian             ... done
Starting the Coulomb interaction                   ... done (   0.0 sec)
Reading the grid                                   ... done
Mapping shells                                     ... done
Starting the XC term evaluation                    ... done (   0.0 sec)
  promolecular density results
     # of electrons  =     29.996930767
     EX              =    -26.367045944
     EC              =     -0.334270721
     EX+EC           =    -26.701316665
Transforming the Hamiltonian                       ... done (   0.0 sec)
Diagonalizing the Hamiltonian                      ... done (   0.0 sec)
Back transforming the eigenvectors                 ... done (   0.0 sec)
Now organizing SCF variables                       ... done
                      ------------------
                      INITIAL GUESS DONE (   0.3 sec)
                      ------------------
--------------
SCF ITERATIONS
--------------
ITER       Energy         Delta-E        Max-DP      RMS-DP      [F,P]     Damp
  0   -228.7566790713   0.000000000000 0.03791306  0.00080558  0.3479998 0.7000
  1   -228.5849135294   0.171765541837 0.02708575  0.00073517  0.2501408 0.7000
                               ***Turning on DIIS***
  2   -228.6681010905  -0.083187561060 0.03496096  0.00108279  0.0913523 0.0000
  3   -228.9224575610  -0.254356470540 0.00773216  0.00019200  0.1896114 0.7000
  4   -229.0035274394  -0.081069878420 0.00688326  0.00018373  0.1703262 0.7000
  5   -229.0209141373  -0.017386697877 0.00558302  0.00014980  0.1357189 0.7000
  6   -229.0243073293  -0.003393192013 0.00451241  0.00012154  0.1057757 0.7000
  7   -229.0244908008  -0.000183471468 0.01905660  0.00048209  0.0818924 0.0000
  8   -229.0064318276   0.018058973179 0.00176371  0.00003581  0.0073123 0.0000
                      *** Initiating the SOSCF procedure ***
                           *** Shutting down DIIS ***
                      *** Re-Reading the Fockian *** 
                      *** Removing any level shift *** 
ITER      Energy       Delta-E        Grad      Rot      Max-DP    RMS-DP
  9   -229.00654171  -0.0001098842  0.000293  0.000293  0.000471  0.000011
 10   -229.00655180  -0.0000100843  0.000226  0.000214  0.000418  0.000010
 11   -229.00655173   0.0000000676  0.000215  0.000097  0.000210  0.000004
 12   -229.00655312  -0.0000013943  0.000005  0.000002  0.000011  0.000000
                  ***Gradient check signals convergence***
              ***Rediagonalizing the Fockian in SOSCF/NRSCF***

               *****************************************************
               *                     SUCCESS                       *
               *           SCF CONVERGED AFTER  13 CYCLES          *
               *****************************************************


----------------
TOTAL SCF ENERGY
----------------

Total Energy       :         -229.00655312 Eh           -6231.58512 eV

Components:
Nuclear Repulsion  :           84.52803165 Eh            2300.12468 eV
Electronic Energy  :         -313.53458477 Eh           -8531.70980 eV
One Electron Energy:         -483.13436312 Eh          -13146.75439 eV
Two Electron Energy:          169.59977835 Eh            4615.04459 eV

Virial components:
Potential Energy   :         -457.11343913 Eh          -12438.68905 eV
Kinetic Energy     :          228.10688601 Eh            6207.10393 eV
Virial Ratio       :            2.00394406


DFT components:
N(Alpha)           :       14.999970912756 electrons
N(Beta)            :       14.999970912756 electrons
N(Total)           :       29.999941825511 electrons
E(X)               :      -12.664958621308 Eh       
E(C)               :       -0.755525394961 Eh       
E(XC)              :      -13.420484016270 Eh       
DFET-embed. en.    :        0.000000000000 Eh       

---------------
SCF CONVERGENCE
---------------

  Last Energy change         ...   -4.9550e-10  Tolerance :   1.0000e-08
  Last MAX-Density change    ...    3.9676e-06  Tolerance :   1.0000e-07
  Last RMS-Density change    ...    8.6346e-08  Tolerance :   5.0000e-09
  Last Orbital Gradient      ...    9.9198e-07  Tolerance :   1.0000e-05
  Last Orbital Rotation      ...    1.5308e-06  Tolerance :   1.0000e-05

             **** THE GBW FILE WAS UPDATED (03_H2O_3.gbw) ****
             **** DENSITY FILE WAS UPDATED (03_H2O_3.scfp) ****
             **** ENERGY FILE WAS UPDATED (03_H2O_3.en.tmp) ****
             **** THE GBW FILE WAS UPDATED (03_H2O_3.gbw) ****
             **** DENSITY FILE WAS UPDATED (03_H2O_3.scfp) ****
----------------
ORBITAL ENERGIES
----------------

  NO   OCC          E(Eh)            E(eV) 
   0   2.0000     -19.732500      -536.9486 
   1   2.0000     -19.730906      -536.9053 
   2   2.0000     -19.730224      -536.8867 
   3   2.0000      -1.167548       -31.7706 
   4   2.0000      -1.150671       -31.3114 
   5   2.0000      -1.149175       -31.2706 
   6   2.0000      -0.635792       -17.3008 
   7   2.0000      -0.605675       -16.4812 
   8   2.0000      -0.603860       -16.4319 
   9   2.0000      -0.491737       -13.3809 
  10   2.0000      -0.486670       -13.2430 
  11   2.0000      -0.456959       -12.4345 
  12   2.0000      -0.407808       -11.0970 
  13   2.0000      -0.399793       -10.8789 
  14   2.0000      -0.394807       -10.7433 
  15   0.0000       0.000643         0.0175 
  16   0.0000       0.021679         0.5899 
  17   0.0000       0.022658         0.6166 
  18   0.0000       0.048921         1.3312 
  19   0.0000       0.055933         1.5220 
  20   0.0000       0.064578         1.7573 
  21   0.0000       0.094972         2.5843 
  22   0.0000       0.108349         2.9483 
  23   0.0000       0.118158         3.2152 
  24   0.0000       0.124708         3.3935 
  25   0.0000       0.128624         3.5000 
  26   0.0000       0.139043         3.7835 
  27   0.0000       0.164732         4.4826 
  28   0.0000       0.173759         4.7282 
  29   0.0000       0.178708         4.8629 
  30   0.0000       0.188005         5.1159 
  31   0.0000       0.194072         5.2810 
  32   0.0000       0.197252         5.3675 
  33   0.0000       0.206370         5.6156 
  34   0.0000       0.220932         6.0119 
  35   0.0000       0.221441         6.0257 
  36   0.0000       0.238222         6.4823 
  37   0.0000       0.272634         7.4188 
  38   0.0000       0.278836         7.5875 
  39   0.0000       0.311931         8.4881 
  40   0.0000       0.312491         8.5033 
  41   0.0000       0.317171         8.6307 
  42   0.0000       0.337121         9.1735 
  43   0.0000       0.342416         9.3176 
  44   0.0000       0.358958         9.7678 
  45   0.0000       0.361165         9.8278 
  46   0.0000       0.376138        10.2352 
  47   0.0000       0.379505        10.3269 
  48   0.0000       0.389038        10.5863 
  49   0.0000       0.395281        10.7562 
  50   0.0000       0.406805        11.0697 
  51   0.0000       0.412623        11.2280 
  52   0.0000       0.422729        11.5030 
  53   0.0000       0.431513        11.7421 
  54   0.0000       0.479197        13.0396 
  55   0.0000       0.492754        13.4085 
  56   0.0000       0.497185        13.5291 
  57   0.0000       0.525449        14.2982 
  58   0.0000       0.571846        15.5607 
  59   0.0000       0.576319        15.6825 
  60   0.0000       0.595138        16.1945 
  61   0.0000       0.632946        17.2233 
  62   0.0000       0.649283        17.6679 
  63   0.0000       0.660886        17.9836 
  64   0.0000       0.679860        18.4999 
  65   0.0000       0.683805        18.6073 
  66   0.0000       0.695150        18.9160 
  67   0.0000       0.712000        19.3745 
  68   0.0000       0.720632        19.6094 
  69   0.0000       0.745930        20.2978 
  70   0.0000       0.753580        20.5060 
  71   0.0000       0.759412        20.6647 
  72   0.0000       0.778714        21.1899 
  73   0.0000       0.799324        21.7507 
  74   0.0000       0.833852        22.6903 
  75   0.0000       0.841066        22.8866 
  76   0.0000       0.844016        22.9668 
  77   0.0000       0.856471        23.3058 
  78   0.0000       0.871538        23.7158 
  79   0.0000       0.874939        23.8083 
  80   0.0000       0.887906        24.1612 
  81   0.0000       0.890834        24.2408 
  82   0.0000       0.908146        24.7119 
  83   0.0000       0.913099        24.8467 
  84   0.0000       0.927313        25.2335 
  85   0.0000       0.937487        25.5103 
  86   0.0000       0.943163        25.6648 
  87   0.0000       0.958661        26.0865 
  88   0.0000       0.959757        26.1163 
  89   0.0000       0.967944        26.3391 
  90   0.0000       0.997462        27.1423 
  91   0.0000       1.037173        28.2229 
  92   0.0000       1.051485        28.6124 
  93   0.0000       1.059680        28.8354 
  94   0.0000       1.073727        29.2176 
  95   0.0000       1.094301        29.7774 
  96   0.0000       1.106932        30.1212 
  97   0.0000       1.113457        30.2987 
  98   0.0000       1.117439        30.4071 
  99   0.0000       1.146915        31.2092 
 100   0.0000       1.163496        31.6603 
 101   0.0000       1.202290        32.7160 
 102   0.0000       1.209490        32.9119 
 103   0.0000       1.228097        33.4182 
 104   0.0000       1.239228        33.7211 
 105   0.0000       1.248747        33.9801 
 106   0.0000       1.273898        34.6645 
 107   0.0000       1.288562        35.0635 
 108   0.0000       1.296448        35.2781 
 109   0.0000       1.332949        36.2714 
 110   0.0000       1.348632        36.6981 
 111   0.0000       1.375926        37.4409 
 112   0.0000       1.398654        38.0593 
 113   0.0000       1.427015        38.8310 
 114   0.0000       1.446763        39.3684 
 115   0.0000       1.469535        39.9881 
 116   0.0000       1.483679        40.3730 
 117   0.0000       1.505703        40.9723 
 118   0.0000       1.541508        41.9466 
 119   0.0000       1.556589        42.3569 
 120   0.0000       1.582927        43.0736 
 121   0.0000       1.623875        44.1879 
 122   0.0000       1.639982        44.6262 
 123   0.0000       1.661197        45.2035 
 124   0.0000       1.694340        46.1053 
 125   0.0000       1.726452        46.9792 
 126   0.0000       1.751653        47.6649 
 127   0.0000       1.807011        49.1713 
 128   0.0000       1.835072        49.9349 
 129   0.0000       1.846008        50.2324 
 130   0.0000       1.877871        51.0995 
 131   0.0000       1.907160        51.8965 
 132   0.0000       1.958282        53.2876 
 133   0.0000       1.964875        53.4670 
 134   0.0000       1.986731        54.0617 
 135   0.0000       2.118983        57.6605 
 136   0.0000       2.188821        59.5608 
 137   0.0000       2.214158        60.2503 
 138   0.0000       2.231369        60.7186 
 139   0.0000       2.243343        61.0445 
 140   0.0000       2.266247        61.6677 
 141   0.0000       2.273457        61.8639 
 142   0.0000       2.288853        62.2829 
 143   0.0000       2.320387        63.1410 
 144   0.0000       2.330351        63.4121 
 145   0.0000       2.335683        63.5572 
 146   0.0000       2.345626        63.8277 
 147   0.0000       2.363736        64.3205 
 148   0.0000       2.376776        64.6754 
 149   0.0000       2.382412        64.8287 
 150   0.0000       2.416456        65.7551 
 151   0.0000       2.424761        65.9811 
 152   0.0000       2.459545        66.9276 
 153   0.0000       2.477441        67.4146 
 154   0.0000       2.525342        68.7181 
 155   0.0000       2.550476        69.4020 
 156   0.0000       2.623135        71.3791 
 157   0.0000       2.633022        71.6482 
 158   0.0000       2.643102        71.9225 
 159   0.0000       2.656775        72.2945 
 160   0.0000       2.664718        72.5107 
 161   0.0000       2.694738        73.3276 
 162   0.0000       2.720810        74.0370 
 163   0.0000       2.744661        74.6860 
 164   0.0000       2.759953        75.1021 
 165   0.0000       2.771748        75.4231 
 166   0.0000       2.776582        75.5546 
 167   0.0000       2.800427        76.2035 
 168   0.0000       2.848543        77.5128 
 169   0.0000       2.900000        78.9130 
 170   0.0000       2.906772        79.0973 
 171   0.0000       2.915281        79.3288 
 172   0.0000       3.045364        82.8686 
 173   0.0000       3.069933        83.5371 
 174   0.0000       3.652422        99.3875 
 175   0.0000       3.668600        99.8277 
 176   0.0000       3.698380       100.6380 
 177   0.0000       3.844065       104.6023 
 178   0.0000       3.854157       104.8770 
 179   0.0000       3.867168       105.2310 
 180   0.0000       3.924202       106.7830 
 181   0.0000       3.931845       106.9910 
 182   0.0000       4.018365       109.3453 
 183   0.0000       4.052207       110.2662 
 184   0.0000       4.086841       111.2086 
 185   0.0000       4.090420       111.3060 
 186   0.0000       4.100038       111.5677 
 187   0.0000       4.116231       112.0083 
 188   0.0000       4.139352       112.6375 
 189   0.0000       4.148899       112.8973 
 190   0.0000       4.184090       113.8549 
 191   0.0000       4.210374       114.5701 
 192   0.0000       4.253065       115.7318 
 193   0.0000       4.280443       116.4768 
 194   0.0000       4.302058       117.0650 
 195   0.0000       4.323209       117.6405 
 196   0.0000       4.340234       118.1038 
 197   0.0000       4.363162       118.7277 
 198   0.0000       4.382690       119.2590 
 199   0.0000       4.406407       119.9044 
 200   0.0000       4.437644       120.7544 
 201   0.0000       4.502770       122.5266 
 202   0.0000       4.513818       122.8272 
 203   0.0000       4.533828       123.3717 
 204   0.0000       4.544774       123.6696 
 205   0.0000       4.565284       124.2277 
 206   0.0000       4.579653       124.6187 
 207   0.0000       4.667455       127.0079 
 208   0.0000       4.689739       127.6143 
 209   0.0000       4.725081       128.5760 
 210   0.0000       4.786187       130.2388 
 211   0.0000       4.841840       131.7532 
 212   0.0000       4.854811       132.1061 
 213   0.0000       4.982015       135.5675 
 214   0.0000       5.001245       136.0908 
 215   0.0000       5.008222       136.2806 
 216   0.0000       5.035425       137.0209 
 217   0.0000       5.071715       138.0084 
 218   0.0000       5.075991       138.1247 
 219   0.0000       5.135753       139.7509 
 220   0.0000       5.157152       140.3332 
 221   0.0000       5.169438       140.6676 
 222   0.0000       5.174604       140.8081 
 223   0.0000       5.284116       143.7881 
 224   0.0000       5.294094       144.0596 
 225   0.0000       5.373548       146.2217 
 226   0.0000       5.384482       146.5192 
 227   0.0000       5.465069       148.7121 
 228   0.0000       5.576328       151.7396 
 229   0.0000       5.590674       152.1300 
 230   0.0000       5.605408       152.5309 
 231   0.0000       6.052095       164.6859 
 232   0.0000       6.068967       165.1450 
 233   0.0000       6.106786       166.1741 
 234   0.0000       6.328137       172.1974 
 235   0.0000       6.342761       172.5953 
 236   0.0000       6.377262       173.5341 
 237   0.0000       6.563711       178.6077 
 238   0.0000       6.589884       179.3199 
 239   0.0000       6.595611       179.4757 
 240   0.0000       6.703046       182.3991 
 241   0.0000       6.710371       182.5985 
 242   0.0000       6.716545       182.7665 
 243   0.0000       6.892520       187.5550 
 244   0.0000       6.924876       188.4355 
 245   0.0000       6.935497       188.7245 
 246   0.0000       7.029806       191.2907 
 247   0.0000       7.049884       191.8371 
 248   0.0000       7.053834       191.9446 
 249   0.0000       7.093412       193.0216 
 250   0.0000       7.096032       193.0929 
 251   0.0000       7.106264       193.3713 
 252   0.0000       7.115580       193.6248 
 253   0.0000       7.129059       193.9915 
 254   0.0000       7.134759       194.1467 
 255   0.0000       7.174950       195.2403 
 256   0.0000       7.192416       195.7156 
 257   0.0000       7.208258       196.1467 
 258   0.0000       7.218086       196.4141 
 259   0.0000       7.279449       198.0839 
 260   0.0000       7.297326       198.5703 
 261   0.0000       7.522131       204.6876 
 262   0.0000       7.527563       204.8354 
 263   0.0000       7.607753       207.0175 
 264   0.0000       7.694437       209.3763 
 265   0.0000       7.702974       209.6086 
 266   0.0000       7.749866       210.8846 
 267   0.0000       7.824033       212.9028 
 268   0.0000       7.840865       213.3608 
 269   0.0000       7.851355       213.6462 
 270   0.0000       8.613994       234.3987 
 271   0.0000       8.616957       234.4793 
 272   0.0000       8.661049       235.6791 
 273   0.0000      15.961833       434.3436 
 274   0.0000      16.186568       440.4589 
 275   0.0000      16.326528       444.2674 

                    ********************************
                    * MULLIKEN POPULATION ANALYSIS *
                    ********************************

-----------------------
MULLIKEN ATOMIC CHARGES
-----------------------
   0 O :   -0.455647
   1 H :    0.290205
   2 H :    0.165545
   3 O :   -0.465583
   4 H :    0.161107
   5 H :    0.300545
   6 O :   -0.455197
   7 H :    0.303222
   8 H :    0.155804
Sum of atomic charges:   -0.0000000

--------------------------------
MULLIKEN REDUCED ORBITAL CHARGES
--------------------------------
  0 O s       :     3.904594  s :     3.904594
      pz      :     1.593339  p :     4.539563
      px      :     1.303444
      py      :     1.642780
      dz2     :     0.001139  d :     0.011103
      dxz     :     0.001146
      dyz     :     0.002227
      dx2y2   :     0.002150
      dxy     :     0.004441
      f0      :     0.000109  f :     0.000388
      f+1     :    -0.000034
      f-1     :     0.000138
      f+2     :     0.000020
      f-2     :     0.000190
      f+3     :    -0.000018
      f-3     :    -0.000018
  1 H s       :     0.596263  s :     0.596263
      pz      :     0.040613  p :     0.084034
      px      :     0.004253
      py      :     0.039168
      dz2     :    -0.000687  d :     0.029498
      dxz     :     0.010759
      dyz     :     0.000722
      dx2y2   :     0.010193
      dxy     :     0.008511
  2 H s       :     0.712184  s :     0.712184
      pz      :     0.036314  p :     0.106375
      px      :     0.028958
      py      :     0.041104
      dz2     :     0.007275  d :     0.015895
      dxz     :     0.000958
      dyz     :     0.001967
      dx2y2   :     0.003045
      dxy     :     0.002649
  3 O s       :     3.902957  s :     3.902957
      pz      :     1.604108  p :     4.550405
      px      :     1.594328
      py      :     1.351968
      dz2     :     0.001412  d :     0.011768
      dxz     :     0.001889
      dyz     :     0.001449
      dx2y2   :     0.005494
      dxy     :     0.001524
      f0      :     0.000124  f :     0.000454
      f+1     :     0.000113
      f-1     :     0.000000
      f+2     :     0.000195
      f-2     :     0.000043
      f+3     :     0.000002
      f-3     :    -0.000024
  4 H s       :     0.714850  s :     0.714850
      pz      :     0.037933  p :     0.108429
      px      :     0.038315
      py      :     0.032181
      dz2     :     0.006977  d :     0.015614
      dxz     :     0.001103
      dyz     :     0.001684
      dx2y2   :     0.003329
      dxy     :     0.002522
  5 H s       :     0.587791  s :     0.587791
      pz      :     0.039286  p :     0.080508
      px      :     0.032779
      py      :     0.008443
      dz2     :    -0.000508  d :     0.031157
      dxz     :     0.000621
      dyz     :     0.012344
      dx2y2   :     0.000874
      dxy     :     0.017826
  6 O s       :     3.901632  s :     3.901632
      pz      :     1.550137  p :     4.541609
      px      :     1.524992
      py      :     1.466480
      dz2     :     0.001167  d :     0.011579
      dxz     :     0.001771
      dyz     :     0.002159
      dx2y2   :     0.001995
      dxy     :     0.004487
      f0      :     0.000059  f :     0.000378
      f+1     :     0.000053
      f-1     :     0.000041
      f+2     :     0.000117
      f-2     :     0.000072
      f+3     :     0.000015
      f-3     :     0.000021
  7 H s       :     0.582885  s :     0.582885
      pz      :     0.037480  p :     0.083841
      px      :     0.027096
      py      :     0.019266
      dz2     :    -0.000650  d :     0.030052
      dxz     :     0.005936
      dyz     :     0.005365
      dx2y2   :     0.018204
      dxy     :     0.001197
  8 H s       :     0.715284  s :     0.715284
      pz      :     0.033064  p :     0.112415
      px      :     0.038073
      py      :     0.041277
      dz2     :     0.007354  d :     0.016498
      dxz     :     0.002858
      dyz     :     0.000560
      dx2y2   :     0.002220
      dxy     :     0.003506


                     *******************************
                     * LOEWDIN POPULATION ANALYSIS *
                     *******************************

----------------------
LOEWDIN ATOMIC CHARGES
----------------------
   0 O :    1.098390
   1 H :   -0.618563
   2 H :   -0.471714
   3 O :    1.095931
   4 H :   -0.474438
   5 H :   -0.628027
   6 O :    1.096994
   7 H :   -0.628310
   8 H :   -0.470263

-------------------------------
LOEWDIN REDUCED ORBITAL CHARGES
-------------------------------
  0 O s       :     2.961804  s :     2.961804
      pz      :     1.326038  p :     3.831771
      px      :     1.189422
      py      :     1.316310
      dz2     :     0.013192  d :     0.090948
      dxz     :     0.018199
      dyz     :     0.009332
      dx2y2   :     0.016820
      dxy     :     0.033404
      f0      :     0.000407  f :     0.017087
      f+1     :     0.003051
      f-1     :     0.002711
      f+2     :     0.000409
      f-2     :     0.004195
      f+3     :     0.001300
      f-3     :     0.005015
  1 H s       :     0.546545  s :     0.546545
      pz      :     0.148049  p :     0.600928
      px      :     0.285160
      py      :     0.167719
      dz2     :     0.046893  d :     0.471090
      dxz     :     0.124990
      dyz     :     0.019796
      dx2y2   :     0.157246
      dxy     :     0.122165
  2 H s       :     0.585276  s :     0.585276
      pz      :     0.210105  p :     0.537596
      px      :     0.154059
      py      :     0.173432
      dz2     :     0.092907  d :     0.348842
      dxz     :     0.071083
      dyz     :     0.067875
      dx2y2   :     0.067503
      dxy     :     0.049473
  3 O s       :     2.963789  s :     2.963789
      pz      :     1.329057  p :     3.833441
      px      :     1.284729
      py      :     1.219655
      dz2     :     0.012729  d :     0.090042
      dxz     :     0.021480
      dyz     :     0.005839
      dx2y2   :     0.040138
      dxy     :     0.009856
      f0      :     0.000479  f :     0.016797
      f+1     :     0.003027
      f-1     :     0.002315
      f+2     :     0.003259
      f-2     :     0.001567
      f+3     :     0.001306
      f-3     :     0.004844
  4 H s       :     0.585991  s :     0.585991
      pz      :     0.209377  p :     0.539177
      px      :     0.193026
      py      :     0.136773
      dz2     :     0.091712  d :     0.349271
      dxz     :     0.085240
      dyz     :     0.051712
      dx2y2   :     0.061553
      dxy     :     0.059053
  5 H s       :     0.545517  s :     0.545517
      pz      :     0.149151  p :     0.606245
      px      :     0.156427
      py      :     0.300668
      dz2     :     0.047644  d :     0.476265
      dxz     :     0.007466
      dyz     :     0.139121
      dx2y2   :     0.119742
      dxy     :     0.162292
  6 O s       :     2.962593  s :     2.962593
      pz      :     1.312589  p :     3.832789
      px      :     1.284161
      py      :     1.236038
      dz2     :     0.015159  d :     0.090513
      dxz     :     0.001492
      dyz     :     0.026477
      dx2y2   :     0.014702
      dxy     :     0.032682
      f0      :     0.000250  f :     0.017111
      f+1     :     0.002289
      f-1     :     0.004513
      f+2     :     0.003027
      f-2     :     0.001019
      f+3     :     0.001246
      f-3     :     0.004767
  7 H s       :     0.545223  s :     0.545223
      pz      :     0.146529  p :     0.605612
      px      :     0.238221
      py      :     0.220862
      dz2     :     0.046690  d :     0.477475
      dxz     :     0.083993
      dyz     :     0.064069
      dx2y2   :     0.145086
      dxy     :     0.137636
  8 H s       :     0.583998  s :     0.583998
      pz      :     0.216589  p :     0.537178
      px      :     0.145765
      py      :     0.174824
      dz2     :     0.100491  d :     0.349086
      dxz     :     0.060898
      dyz     :     0.086092
      dx2y2   :     0.041085
      dxy     :     0.060520


                      *****************************
                      * MAYER POPULATION ANALYSIS *
                      *****************************

  NA   - Mulliken gross atomic population
  ZA   - Total nuclear charge
  QA   - Mulliken gross atomic charge
  VA   - Mayer's total valence
  BVA  - Mayer's bonded valence
  FA   - Mayer's free valence

  ATOM       NA         ZA         QA         VA         BVA        FA
  0 O      8.4556     8.0000    -0.4556     1.9397     1.9397     0.0000
  1 H      0.7098     1.0000     0.2902     0.9460     0.9460     0.0000
  2 H      0.8345     1.0000     0.1655     1.0733     1.0733     0.0000
  3 O      8.4656     8.0000    -0.4656     1.9273     1.9273    -0.0000
  4 H      0.8389     1.0000     0.1611     1.0822     1.0822    -0.0000
  5 H      0.6995     1.0000     0.3005     0.9362     0.9362    -0.0000
  6 O      8.4552     8.0000    -0.4552     1.9292     1.9292    -0.0000
  7 H      0.6968     1.0000     0.3032     0.9290     0.9290    -0.0000
  8 H      0.8442     1.0000     0.1558     1.0940     1.0940    -0.0000

  Mayer bond orders larger than 0.100000
B(  0-O ,  1-H ) :   0.9042 B(  0-O ,  2-H ) :   1.0487 B(  3-O ,  4-H ) :   1.0529 
B(  3-O ,  5-H ) :   0.8905 B(  6-O ,  7-H ) :   0.8877 B(  6-O ,  8-H ) :   1.0563 


-------
TIMINGS
-------

Total SCF time: 0 days 0 hours 0 min 3 sec 

Total time                  ....       3.668 sec
Sum of individual times     ....       3.474 sec  ( 94.7%)

Fock matrix formation       ....       2.915 sec  ( 79.5%)
  XC integration            ....       0.696 sec  ( 23.9% of F)
    Basis function eval.    ....       0.121 sec  ( 17.4% of XC)
    Density eval.           ....       0.109 sec  ( 15.7% of XC)
    XC-Functional eval.     ....       0.018 sec  (  2.6% of XC)
    XC-Potential eval.      ....       0.241 sec  ( 34.6% of XC)
Diagonalization             ....       0.117 sec  (  3.2%)
Density matrix formation    ....       0.018 sec  (  0.5%)
Population analysis         ....       0.011 sec  (  0.3%)
Initial guess               ....       0.131 sec  (  3.6%)
Orbital Transformation      ....       0.000 sec  (  0.0%)
Orbital Orthonormalization  ....       0.000 sec  (  0.0%)
DIIS solution               ....       0.058 sec  (  1.6%)
SOSCF solution              ....       0.032 sec  (  0.9%)
Grid generation             ....       0.191 sec  (  5.2%)


           ************************************************************
           *        Program running with 24 parallel MPI-processes    *
           *              working on a common directory               *
           ************************************************************

------------------------------------------------------------------------------
                                ORCA  MP2 
------------------------------------------------------------------------------

Freezing NCore=6 chemical core electrons

----------------------
RI-MP2 ENERGY+GRADIENT
----------------------
Dimension of the basis                    ...  276
Memory devoted to MP2                     ... 5000 MB   
Data format for buffers                   ... DOUBLE
Compression type for matrix containers    ... UNCOMPRESSED
Overall scaling of the MP2 energy         ...   2.700e-01
Calculating two index integrals           ... done (    0.001 sec)
Cholesky decomposition of the V-matrix    ... done
Cholesky decomposition of V**-1           ... done (    0.004 sec)

-----------------
RI-TRANSFORMATION (AUX index driven)
-----------------

Dimension of the orbital-basis         ... 276
Dimension of the aux-basis             ... 318
Transformation of internal MOs         ...    0-  14
Transformation of internal/external MOs...    0-  14 to   15- 275
Number Format for Storage              ... Double (8 Byte)
Integral mode                          ... Direct

First Phase: integral generation and transformation of MO indices
  Aux angular momentum 0               ... done (    0.004 sec)
  Aux angular momentum 1               ... done (    0.008 sec)
  Aux angular momentum 2               ... done (    0.008 sec)
  Aux angular momentum 3               ... done (    0.008 sec)
  Aux angular momentum 4               ... done (    0.009 sec)
Closing buffer VIJ ( 0.00 GB; CompressionRatio= 0.99)
Closing buffer VIA ( 0.01 GB; CompressionRatio= 1.00)
  Phase 1 completed in     0.113 sec
Second Phase: sorting and transformation of aux index

IJ-Transformation
Memory available                       ... 4991 MB 
Max. # MO pairs treated in a batch     ... 1    
# of internal orbitals                 ... 15
# batches for internal orbitals        ... 1
Closing buffer IJV ( 0.00 GB; CompressionRatio= 1.00)
(ij|v) transformation done in     0.014 sec

IA-Transformation
Memory available                       ... 4991 MB 
Max. # MO pairs treated in a batch     ... 1    
# of internal orbitals                 ... 15
# batches for internal orbitals        ... 1
Closing buffer IAV ( 0.00 GB; CompressionRatio= 1.00)
(ia|v) transformation done in     0.005 sec

  Phase 2 completed in     0.040 sec
RI-Integral transformation completed in     0.154 sec
Opening buffers                              ... done
Frozen core precalculation                   ... done

Starting loop over batches of integrals:

Operator 0  - window                       ... (  3- 14)x( 15-275)
Operator 0  - Memory available             ...  5000 MB
Operator 0  - Memory needed per MO         ...   1.3 MB
Operator 0  - Number of orbitals per batch ... 1
Operator 0  - Number of batches            ... 1

OPERATOR  0   PASS   0:  MOs     3 ...    3 +    4 ...    4 +    5 ...    5 +    6 ...    6
                            +    7 ...    7 +    8 ...    8 +    9 ...    9 +   10 ...   10
                            +   11 ...   11 +   12 ...   12 +   13 ...   13 +   14 ...   14
  Reading integrals       ... ok
Closing buffer GIPV ( 0.00 GB; CompressionRatio= 1.00)
Time spent in pair loops =     0.416 sec
Deleting buffer (Ka|jb)[aa] ...done

-----------------------------------------------
 RI-MP2 CORRELATION ENERGY:     -0.261510839 Eh
-----------------------------------------------


---------------------
MP2 DENSITY FORMATION
---------------------

Completing the external part of the density      ... done
Storing the unrelaxed density                    ... done

Calculating the xc-kernel                        ... done
Calculating G(D)                                 ... done
Completing the Lagrangian                        ... done
Solving the Z-vector equations                   ... 

------------------------------------------------------------------------------
                           ORCA CP-SCF CALCULATION
------------------------------------------------------------------------------

Input orbitals are from        ... 03_H2O_3.gbw
Input Perturbation             ... 03_H2O_3.pin.tmp
Wavefunction output            ... 03_H2O_3.pout.tmp
Perturbation mode              ... Real perturbation (singlet)
Solver                         ... POPLE
Max. number of iterations      ... 128
Convergence tolerance          ... 1.000e-08
Integral handling              ... Direct
Number of perturbations        ... 1
Number of operators            ... 1
Orbital ranges used for CP-SCF:
 Operator 0:  Orbitals   0... 14  to  15...275
DFT calculation                         ... on
Exchange functional (SCF)               ... B88
Exchange functional (CP-SCF)            ... B88
   X-Alpha parameter    XAlpha (SCF)    ...  0.666667
   X-Alpha parameter    XAlpha (CP-SCF) ...  0.666667
   Becke's b parameter  XBeta (SCF)     ...  0.004200
   Becke's b parameter  XBeta (CP-SCF)  ...  0.004200
Correlation functional (SCF)            ... LYP
Correlation functional (CP-SCF)         ... LYP
 LDA part of GGA corr.  LDAOpt (SCF)    ... VWN-3
 LDA part of GGA corr.  LDAOpt (CP-SCF) ... VWN-3
Hybrid DFT                              ... on
   Exchange mixing (SCF)                ...  0.530
   Exchange mixing (CP-SCF)             ...  0.530
   GGA exch. scaling(SCF)               ...  0.470
   GGA exch. scaling (CP-SCF)           ...  0.470
   GGA corr. scaling (SCF)              ...  0.730
   GGA corr. scaling (CP-SCF)           ...  0.730
Variables per vector in CP-SCF ... 3915
Number of vectors sought       ... 1
Recalculating density on grid  ... done
Calculating the xc-kernel      ... done
     CP-SCF ITERATION   0: 
     CP-SCF ITERATION   1:      0.000042287180
     CP-SCF ITERATION   2:      0.000001014408
     CP-SCF ITERATION   3:      0.000000045111
     CP-SCF ITERATION   4:      0.000000001974
done
Finalizing the relaxed density                   ... done
Transforming P to the AO basis                   ... done
Storing the relaxed density                      ... done

------------------------------------
ENERGY WEIGHTED DENSITY FINALIZATION
------------------------------------

Gathering the parts of the W-matrix              ... done
Forming the Z-density                            ... done
Transforming Z to the AO basis                   ... done
Calculating G(Z)                                 ... done
Finalizing the W-matrix                          ... done
Transforming W to the AO basis and storing       ... done
Entering the RIJONX and RIJCOSX sections
Starting the three-index derivative integrals:
Operator 0  - Memory available             ...  5000 MB
Operator 0  - Memory needed per MO         ...   1.3 MB
Operator 0  - Number of orbitals per batch ... 1
Operator 0  - Number of batches            ... 1

OPERATOR  0   PASS   0:  MOs     3 ...    3 +    4 ...    4 +    5 ...    5 +    6 ...    6
                            +    7 ...    7 +    8 ...    8 +    9 ...    9 +   10 ...   10
                            +   11 ...   11 +   12 ...   12 +   13 ...   13 +   14 ...   14

----------------------------------
MP2 DERIVATIVE INTEGRAL GENERATION
----------------------------------


Input Correlated Electron Density   ... 03_H2O_3.pmp2re
Input Energy Weighted Density       ... 03_H2O_3.wmp2.tmp
Input SCF Electron Density          ... 03_H2O_3.scfp

One-Electron Terms    ...
                        ... One-Electron Terms done
Prescreening matrices              ... done
Exchange-correlation gradient    ... done
Dispersion correction            ... done

                *********************************************
                * UNRELAXED MP2 DENSITY POPULATION ANALYSIS *
                *********************************************

------------------------------------------------------------------------------
                           ORCA POPULATION ANALYSIS
------------------------------------------------------------------------------
Input electron density              ... 03_H2O_3.pmp2ur
BaseName (.gbw .S,...)              ... 03_H2O_3

                    ********************************
                    * MULLIKEN POPULATION ANALYSIS *
                    ********************************

-----------------------
MULLIKEN ATOMIC CHARGES
-----------------------
   0 O :   -0.450031
   1 H :    0.287187
   2 H :    0.162906
   3 O :   -0.459974
   4 H :    0.158505
   5 H :    0.297569
   6 O :   -0.449683
   7 H :    0.300327
   8 H :    0.153194
Sum of atomic charges:   -0.0000000

--------------------------------
MULLIKEN REDUCED ORBITAL CHARGES
--------------------------------
  0 O s       :     3.902377  s :     3.902377
      pz      :     1.587831  p :     4.524527
      px      :     1.299399
      py      :     1.637298
      dz2     :     0.003219  d :     0.021444
      dxz     :     0.003206
      dyz     :     0.004295
      dx2y2   :     0.004307
      dxy     :     0.006416
      f0      :     0.000290  f :     0.001683
      f+1     :     0.000146
      f-1     :     0.000325
      f+2     :     0.000201
      f-2     :     0.000374
      f+3     :     0.000172
      f-3     :     0.000175
  1 H s       :     0.599137  s :     0.599137
      pz      :     0.041305  p :     0.084274
      px      :     0.003616
      py      :     0.039353
      dz2     :    -0.000697  d :     0.029403
      dxz     :     0.010780
      dyz     :     0.000775
      dx2y2   :     0.010074
      dxy     :     0.008472
  2 H s       :     0.714445  s :     0.714445
      pz      :     0.036337  p :     0.106771
      px      :     0.028978
      py      :     0.041457
      dz2     :     0.007269  d :     0.015877
      dxz     :     0.000939
      dyz     :     0.001960
      dx2y2   :     0.003058
      dxy     :     0.002651
  3 O s       :     3.900769  s :     3.900769
      pz      :     1.598583  p :     4.535352
      px      :     1.589509
      py      :     1.347260
      dz2     :     0.003500  d :     0.022103
      dxz     :     0.003847
      dyz     :     0.003607
      dx2y2   :     0.007406
      dxy     :     0.003744
      f0      :     0.000305  f :     0.001750
      f+1     :     0.000298
      f-1     :     0.000184
      f+2     :     0.000377
      f-2     :     0.000226
      f+3     :     0.000192
      f-3     :     0.000168
  4 H s       :     0.717056  s :     0.717056
      pz      :     0.038000  p :     0.108843
      px      :     0.038343
      py      :     0.032500
      dz2     :     0.006972  d :     0.015596
      dxz     :     0.001058
      dyz     :     0.001703
      dx2y2   :     0.003331
      dxy     :     0.002532
  5 H s       :     0.590715  s :     0.590715
      pz      :     0.039924  p :     0.080649
      px      :     0.033326
      py      :     0.007399
      dz2     :    -0.000520  d :     0.031066
      dxz     :     0.000692
      dyz     :     0.012355
      dx2y2   :     0.000758
      dxy     :     0.017780
  6 O s       :     3.899491  s :     3.899491
      pz      :     1.544749  p :     4.526558
      px      :     1.519631
      py      :     1.462179
      dz2     :     0.003200  d :     0.021958
      dxz     :     0.003935
      dyz     :     0.004147
      dx2y2   :     0.004162
      dxy     :     0.006514
      f0      :     0.000242  f :     0.001676
      f+1     :     0.000242
      f-1     :     0.000224
      f+2     :     0.000301
      f-2     :     0.000253
      f+3     :     0.000203
      f-3     :     0.000211
  7 H s       :     0.585758  s :     0.585758
      pz      :     0.038075  p :     0.083966
      px      :     0.026485
      py      :     0.019405
      dz2     :    -0.000664  d :     0.029949
      dxz     :     0.005959
      dyz     :     0.005415
      dx2y2   :     0.018205
      dxy     :     0.001033
  8 H s       :     0.717574  s :     0.717574
      pz      :     0.032929  p :     0.112757
      px      :     0.038542
      py      :     0.041285
      dz2     :     0.007341  d :     0.016475
      dxz     :     0.002875
      dyz     :     0.000506
      dx2y2   :     0.002232
      dxy     :     0.003520


                     *******************************
                     * LOEWDIN POPULATION ANALYSIS *
                     *******************************

----------------------
LOEWDIN ATOMIC CHARGES
----------------------
   0 O :    1.097710
   1 H :   -0.618170
   2 H :   -0.471443
   3 O :    1.095242
   4 H :   -0.474172
   5 H :   -0.627622
   6 O :    1.096303
   7 H :   -0.627879
   8 H :   -0.469969

-------------------------------
LOEWDIN REDUCED ORBITAL CHARGES
-------------------------------
  0 O s       :     2.961095  s :     2.961095
      pz      :     1.322358  p :     3.821172
      px      :     1.186400
      py      :     1.312414
      dz2     :     0.015265  d :     0.101429
      dxz     :     0.020240
      dyz     :     0.011455
      dx2y2   :     0.018844
      dxy     :     0.035625
      f0      :     0.000600  f :     0.018594
      f+1     :     0.003280
      f-1     :     0.002921
      f+2     :     0.000596
      f-2     :     0.004419
      f+3     :     0.001515
      f-3     :     0.005263
  1 H s       :     0.546012  s :     0.546012
      pz      :     0.148439  p :     0.602083
      px      :     0.285539
      py      :     0.168105
      dz2     :     0.046995  d :     0.470075
      dxz     :     0.124504
      dyz     :     0.019831
      dx2y2   :     0.156753
      dxy     :     0.121992
  2 H s       :     0.584392  s :     0.584392
      pz      :     0.210831  p :     0.539096
      px      :     0.154385
      py      :     0.173881
      dz2     :     0.092465  d :     0.347954
      dxz     :     0.071085
      dyz     :     0.067773
      dx2y2   :     0.067201
      dxy     :     0.049430
  3 O s       :     2.963077  s :     2.963077
      pz      :     1.325363  p :     3.822842
      px      :     1.281042
      py      :     1.216437
      dz2     :     0.014800  d :     0.100535
      dxz     :     0.023752
      dyz     :     0.007744
      dx2y2   :     0.042462
      dxy     :     0.011779
      f0      :     0.000672  f :     0.018304
      f+1     :     0.003250
      f-1     :     0.002528
      f+2     :     0.003475
      f-2     :     0.001765
      f+3     :     0.001522
      f-3     :     0.005091
  4 H s       :     0.585103  s :     0.585103
      pz      :     0.210100  p :     0.540689
      px      :     0.193656
      py      :     0.136933
      dz2     :     0.091271  d :     0.348379
      dxz     :     0.085288
      dyz     :     0.051576
      dx2y2   :     0.061368
      dxy     :     0.058877
  5 H s       :     0.545004  s :     0.545004
      pz      :     0.149546  p :     0.607382
      px      :     0.156653
      py      :     0.301183
      dz2     :     0.047740  d :     0.475236
      dxz     :     0.007638
      dyz     :     0.138497
      dx2y2   :     0.119834
      dxy     :     0.161528
  6 O s       :     2.961894  s :     2.961894
      pz      :     1.308972  p :     3.822182
      px      :     1.280507
      py      :     1.232703
      dz2     :     0.017241  d :     0.101001
      dxz     :     0.003420
      dyz     :     0.028698
      dx2y2   :     0.016699
      dxy     :     0.034943
      f0      :     0.000441  f :     0.018620
      f+1     :     0.002494
      f-1     :     0.004760
      f+2     :     0.003239
      f-2     :     0.001214
      f+3     :     0.001461
      f-3     :     0.005011
  7 H s       :     0.544708  s :     0.544708
      pz      :     0.146891  p :     0.606730
      px      :     0.238742
      py      :     0.221097
      dz2     :     0.046795  d :     0.476441
      dxz     :     0.083639
      dyz     :     0.063953
      dx2y2   :     0.144455
      dxy     :     0.137599
  8 H s       :     0.583118  s :     0.583118
      pz      :     0.217332  p :     0.538656
      px      :     0.145983
      py      :     0.175341
      dz2     :     0.100038  d :     0.348195
      dxz     :     0.060641
      dyz     :     0.086195
      dx2y2   :     0.041059
      dxy     :     0.060262


                      *****************************
                      * MAYER POPULATION ANALYSIS *
                      *****************************

  NA   - Mulliken gross atomic population
  ZA   - Total nuclear charge
  QA   - Mulliken gross atomic charge
  VA   - Mayer's total valence
  BVA  - Mayer's bonded valence
  FA   - Mayer's free valence

  ATOM       NA         ZA         QA         VA         BVA        FA
  0 O      8.4500     8.0000    -0.4500     2.0443     1.8936     0.1508
  1 H      0.7128     1.0000     0.2872     0.9501     0.9237     0.0264
  2 H      0.8371     1.0000     0.1629     1.0779     1.0490     0.0289
  3 O      8.4600     8.0000    -0.4600     2.0326     1.8813     0.1513
  4 H      0.8415     1.0000     0.1585     1.0867     1.0578     0.0289
  5 H      0.7024     1.0000     0.2976     0.9401     0.9141     0.0260
  6 O      8.4497     8.0000    -0.4497     2.0343     1.8831     0.1512
  7 H      0.6997     1.0000     0.3003     0.9328     0.9070     0.0258
  8 H      0.8468     1.0000     0.1532     1.0984     1.0694     0.0290

  Mayer bond orders larger than 0.100000
B(  0-O ,  1-H ) :   0.8824 B(  0-O ,  2-H ) :   1.0248 B(  3-O ,  4-H ) :   1.0289 
B(  3-O ,  5-H ) :   0.8689 B(  6-O ,  7-H ) :   0.8661 B(  6-O ,  8-H ) :   1.0322 



                *******************************************
                * RELAXED MP2 DENSITY POPULATION ANALYSIS *
                *******************************************

------------------------------------------------------------------------------
                           ORCA POPULATION ANALYSIS
------------------------------------------------------------------------------
Input electron density              ... 03_H2O_3.pmp2re
BaseName (.gbw .S,...)              ... 03_H2O_3

                    ********************************
                    * MULLIKEN POPULATION ANALYSIS *
                    ********************************

-----------------------
MULLIKEN ATOMIC CHARGES
-----------------------
   0 O :   -0.439697
   1 H :    0.277912
   2 H :    0.161539
   3 O :   -0.449206
   4 H :    0.156716
   5 H :    0.288754
   6 O :   -0.439316
   7 H :    0.291160
   8 H :    0.152138
Sum of atomic charges:   -0.0000000

--------------------------------
MULLIKEN REDUCED ORBITAL CHARGES
--------------------------------
  0 O s       :     3.900302  s :     3.900302
      pz      :     1.585828  p :     4.516096
      px      :     1.299769
      py      :     1.630499
      dz2     :     0.003301  d :     0.021603
      dxz     :     0.003171
      dyz     :     0.004423
      dx2y2   :     0.004366
      dxy     :     0.006342
      f0      :     0.000294  f :     0.001696
      f+1     :     0.000151
      f-1     :     0.000326
      f+2     :     0.000205
      f-2     :     0.000372
      f+3     :     0.000171
      f-3     :     0.000175
  1 H s       :     0.601411  s :     0.601411
      pz      :     0.044221  p :     0.092215
      px      :     0.006530
      py      :     0.041464
      dz2     :    -0.000612  d :     0.028461
      dxz     :     0.010385
      dyz     :     0.000768
      dx2y2   :     0.009845
      dxy     :     0.008074
  2 H s       :     0.711475  s :     0.711475
      pz      :     0.039051  p :     0.111993
      px      :     0.029192
      py      :     0.043749
      dz2     :     0.006879  d :     0.014993
      dxz     :     0.000908
      dyz     :     0.001756
      dx2y2   :     0.002957
      dxy     :     0.002493
  3 O s       :     3.898576  s :     3.898576
      pz      :     1.596365  p :     4.526702
      px      :     1.583500
      py      :     1.346836
      dz2     :     0.003572  d :     0.022166
      dxz     :     0.003868
      dyz     :     0.003655
      dx2y2   :     0.007319
      dxy     :     0.003752
      f0      :     0.000310  f :     0.001763
      f+1     :     0.000307
      f-1     :     0.000180
      f+2     :     0.000376
      f-2     :     0.000230
      f+3     :     0.000192
      f-3     :     0.000167
  4 H s       :     0.714412  s :     0.714412
      pz      :     0.040613  p :     0.114138
      px      :     0.040275
      py      :     0.033250
      dz2     :     0.006594  d :     0.014735
      dxz     :     0.000892
      dyz     :     0.001653
      dx2y2   :     0.003143
      dxy     :     0.002453
  5 H s       :     0.593287  s :     0.593287
      pz      :     0.042616  p :     0.088032
      px      :     0.036472
      py      :     0.008944
      dz2     :    -0.000471  d :     0.029928
      dxz     :     0.000711
      dyz     :     0.011775
      dx2y2   :     0.000664
      dxy     :     0.017248
  6 O s       :     3.897311  s :     3.897311
      pz      :     1.543518  p :     4.518225
      px      :     1.515950
      py      :     1.458756
      dz2     :     0.003264  d :     0.022096
      dxz     :     0.004072
      dyz     :     0.004105
      dx2y2   :     0.004139
      dxy     :     0.006516
      f0      :     0.000245  f :     0.001684
      f+1     :     0.000236
      f-1     :     0.000232
      f+2     :     0.000302
      f-2     :     0.000253
      f+3     :     0.000204
      f-3     :     0.000211
  7 H s       :     0.588935  s :     0.588935
      pz      :     0.040498  p :     0.091046
      px      :     0.027942
      py      :     0.022606
      dz2     :    -0.000604  d :     0.028860
      dxz     :     0.005672
      dyz     :     0.005223
      dx2y2   :     0.017528
      dxy     :     0.001041
  8 H s       :     0.714821  s :     0.714821
      pz      :     0.035303  p :     0.117483
      px      :     0.040248
      py      :     0.041933
      dz2     :     0.006958  d :     0.015558
      dxz     :     0.002709
      dyz     :     0.000406
      dx2y2   :     0.002122
      dxy     :     0.003363


                     *******************************
                     * LOEWDIN POPULATION ANALYSIS *
                     *******************************

----------------------
LOEWDIN ATOMIC CHARGES
----------------------
   0 O :    1.100694
   1 H :   -0.620320
   2 H :   -0.472343
   3 O :    1.098216
   4 H :   -0.475088
   5 H :   -0.629730
   6 O :    1.099416
   7 H :   -0.629934
   8 H :   -0.470911

-------------------------------
LOEWDIN REDUCED ORBITAL CHARGES
-------------------------------
  0 O s       :     2.961913  s :     2.961913
      pz      :     1.320239  p :     3.817119
      px      :     1.188017
      py      :     1.308863
      dz2     :     0.015285  d :     0.101569
      dxz     :     0.020052
[...]
             <<<Displacing   7/coordinate 1 (-)>>>
             <<<Displacing   9/coordinate 1 (+)>>>
             <<<Displacing   9/coordinate 2 (+)>>>
             <<<Displacing   9/coordinate 3 (+)>>>
             <<<Displacing   9/coordinate 3 (-)>>>
             <<<Displacing   9/coordinate 2 (-)>>>
             <<<Displacing   9/coordinate 1 (-)>>>

-----------------------
VIBRATIONAL FREQUENCIES
-----------------------

Scaling factor for frequencies =  1.000000000 (already applied!)

   0:         0.00 cm**-1
   1:         0.00 cm**-1
   2:         0.00 cm**-1
   3:         0.00 cm**-1
   4:         0.00 cm**-1
   5:         0.00 cm**-1
   6:       177.96 cm**-1
   7:       186.17 cm**-1
   8:       192.19 cm**-1
   9:       210.78 cm**-1
  10:       222.65 cm**-1
  11:       248.83 cm**-1
  12:       352.79 cm**-1
  13:       364.72 cm**-1
  14:       456.16 cm**-1
  15:       578.62 cm**-1
  16:       672.34 cm**-1
  17:       866.75 cm**-1
  18:      1643.04 cm**-1
  19:      1645.59 cm**-1
  20:      1670.03 cm**-1
  21:      3558.01 cm**-1
  22:      3621.43 cm**-1
  23:      3631.08 cm**-1
  24:      3883.23 cm**-1
  25:      3888.66 cm**-1
  26:      3889.17 cm**-1


------------
NORMAL MODES
------------

These modes are the cartesian displacements weighted by the diagonal matrix
M(i,i)=1/sqrt(m[i]) where m[i] is the mass of the displaced atom
Thus, these vectors are normalized but *not* orthogonal

                  0          1          2          3          4          5    
      0       0.000000   0.000000   0.000000   0.000000   0.000000   0.000000
      1       0.000000   0.000000   0.000000   0.000000   0.000000   0.000000
      2       0.000000   0.000000   0.000000   0.000000   0.000000   0.000000
      3       0.000000   0.000000   0.000000   0.000000   0.000000   0.000000
      4       0.000000   0.000000   0.000000   0.000000   0.000000   0.000000
      5       0.000000   0.000000   0.000000   0.000000   0.000000   0.000000
      6       0.000000   0.000000   0.000000   0.000000   0.000000   0.000000
      7       0.000000   0.000000   0.000000   0.000000   0.000000   0.000000
      8       0.000000   0.000000   0.000000   0.000000   0.000000   0.000000
      9       0.000000   0.000000   0.000000   0.000000   0.000000   0.000000
     10       0.000000   0.000000   0.000000   0.000000   0.000000   0.000000
     11       0.000000   0.000000   0.000000   0.000000   0.000000   0.000000
     12       0.000000   0.000000   0.000000   0.000000   0.000000   0.000000
     13       0.000000   0.000000   0.000000   0.000000   0.000000   0.000000
     14       0.000000   0.000000   0.000000   0.000000   0.000000   0.000000
     15       0.000000   0.000000   0.000000   0.000000   0.000000   0.000000
     16       0.000000   0.000000   0.000000   0.000000   0.000000   0.000000
     17       0.000000   0.000000   0.000000   0.000000   0.000000   0.000000
     18       0.000000   0.000000   0.000000   0.000000   0.000000   0.000000
     19       0.000000   0.000000   0.000000   0.000000   0.000000   0.000000
     20       0.000000   0.000000   0.000000   0.000000   0.000000   0.000000
     21       0.000000   0.000000   0.000000   0.000000   0.000000   0.000000
     22       0.000000   0.000000   0.000000   0.000000   0.000000   0.000000
     23       0.000000   0.000000   0.000000   0.000000   0.000000   0.000000
     24       0.000000   0.000000   0.000000   0.000000   0.000000   0.000000
     25       0.000000   0.000000   0.000000   0.000000   0.000000   0.000000
     26       0.000000   0.000000   0.000000   0.000000   0.000000   0.000000
                  6          7          8          9         10         11    
      0       0.146044   0.011488   0.142280   0.011204   0.285235   0.011834
      1      -0.011900   0.228656   0.017729   0.073196   0.151490   0.002473
      2       0.047152   0.041244  -0.043400   0.014394   0.010930  -0.004217
      3       0.151227  -0.041551   0.118007  -0.069207   0.289036   0.041083
      4      -0.008586   0.112759  -0.019801  -0.069473   0.141724   0.040501
      5       0.036653  -0.056709   0.061915   0.078016   0.110471  -0.131573
      6      -0.133399  -0.101172   0.285262  -0.248601   0.186823   0.204521
      7      -0.566166   0.048279   0.542313  -0.101676   0.196653   0.128052
      8      -0.567087  -0.176472   0.432273  -0.326204  -0.045387   0.245803
      9      -0.102862   0.226691  -0.065596   0.024321  -0.260928   0.016111
     10      -0.076461  -0.137794  -0.127648  -0.007201   0.209869   0.011788
     11      -0.022779  -0.042328   0.021033   0.020781   0.012323  -0.046661
     12      -0.331853  -0.289030   0.245044   0.468755  -0.265861  -0.368950
     13      -0.071800   0.044003  -0.235763  -0.036979   0.241332  -0.141687
     14       0.221101   0.576724  -0.350062  -0.460149   0.027906   0.296948
     15      -0.071907   0.069908   0.103965  -0.009053  -0.271857  -0.073074
     16      -0.068870  -0.140262  -0.120113  -0.018877   0.227538  -0.008143
     17      -0.083050  -0.204285   0.057985   0.158666  -0.065218   0.193323
     18      -0.010805  -0.178520  -0.116295  -0.048525  -0.013173  -0.035882
     19       0.125634  -0.097538   0.094489  -0.020991  -0.382434   0.017051
     20      -0.004709  -0.025063   0.016318   0.015445  -0.033037   0.043123
     21      -0.019097  -0.177515   0.008091  -0.022159  -0.057890  -0.005240
     22       0.126970  -0.106395  -0.077732  -0.068594  -0.336081  -0.027073
     23       0.192905   0.045080  -0.181763   0.115279  -0.074654  -0.011982
     24      -0.108865  -0.407556  -0.131662   0.086596  -0.056974   0.327619
     25      -0.003159   0.147587   0.155991  -0.418701  -0.136661  -0.488643
     26      -0.112635   0.230680   0.075669  -0.369057   0.202169  -0.469436
                 12         13         14         15         16         17    
      0       0.026615   0.007934  -0.005261  -0.027093  -0.013862  -0.026658
      1      -0.024601  -0.017518   0.022725  -0.013752   0.015841   0.007081
      2       0.013280  -0.036830  -0.001983  -0.032455   0.024380  -0.007078
      3      -0.059575  -0.083882   0.081409   0.272773  -0.032531   0.156257
      4      -0.146094  -0.176649   0.154602   0.607125  -0.042356   0.367853
      5       0.420956   0.150068  -0.371062   0.519135  -0.205649   0.232290
      6      -0.332312  -0.125731   0.362569   0.069501   0.040363   0.107676
      7       0.222834   0.319016  -0.259340  -0.055526  -0.182719  -0.174066
      8      -0.130579   0.076227   0.126499   0.024060  -0.063686  -0.009232
      9       0.014739  -0.009630  -0.009584  -0.002731  -0.022014   0.010841
     10      -0.014029  -0.018830  -0.050689  -0.007795   0.003552  -0.021617
     11      -0.033451   0.000361   0.026886   0.002863   0.020366  -0.018885
     12      -0.003536   0.031413   0.250445   0.009185   0.009070   0.055770
     13       0.240764   0.439553   0.444088  -0.051018   0.062356   0.158049
     14       0.091572   0.146045  -0.044241  -0.026003   0.011555   0.013177
     15      -0.243099  -0.151480  -0.332208   0.340408   0.417937  -0.456852
     16      -0.026471   0.003890  -0.050995   0.039484   0.068222  -0.074515
     17      -0.094659  -0.437734  -0.249879  -0.286920  -0.452754   0.334468
     18      -0.026129   0.033626  -0.011761  -0.010056  -0.019027   0.017431
     19       0.003171   0.026475  -0.007156  -0.015512   0.016335   0.022805
     20       0.024657   0.029753   0.008453   0.012142   0.034580   0.007235
     21      -0.103015   0.152069  -0.195952  -0.125926   0.297671   0.316584
     22       0.158462  -0.186114   0.266143   0.148066  -0.410062  -0.407307
     23      -0.422787   0.351430   0.023957   0.123312  -0.490117  -0.281197
     24       0.499877  -0.329164   0.256031   0.067030   0.138924  -0.205051
     25       0.113303  -0.242993   0.002934  -0.099931  -0.062525  -0.001257
     26       0.064298  -0.179449  -0.014685  -0.076615  -0.058413   0.007754
                 18         19         20         21         22         23    
      0       0.001960   0.010345   0.004524   0.023239   0.007017   0.040653
      1      -0.012094  -0.035277  -0.036084  -0.014915  -0.005576  -0.027465
      2       0.006747   0.030169   0.026257   0.004458   0.002329   0.008034
      3       0.056975   0.177988   0.208450  -0.413623  -0.142027  -0.756286
      4       0.104159   0.305211   0.352125   0.215249   0.069902   0.376600
      5      -0.105792  -0.383500  -0.350230  -0.011818  -0.005607  -0.017146
      6      -0.105033  -0.331213  -0.329693   0.061306   0.031469   0.116243
      7       0.089103   0.276188   0.267554   0.037520   0.023025   0.060307
      8      -0.029646  -0.102081  -0.101480  -0.057754  -0.031751  -0.108931
      9      -0.030922  -0.010928   0.021609   0.000655  -0.001801   0.000030
     10      -0.030132  -0.012045   0.014378   0.037049  -0.041886  -0.012228
     11      -0.032935  -0.009305   0.022839   0.006605  -0.007904  -0.001832
     12       0.075258   0.039141  -0.028433  -0.080160   0.097456   0.014218
     13       0.501413   0.189544  -0.302964   0.043258  -0.058262  -0.015526
     14       0.127725   0.038550  -0.090226  -0.070766   0.090066   0.017177
     15       0.427809   0.149633  -0.322171   0.047486  -0.066494  -0.018760
     16      -0.002709  -0.005577   0.001079  -0.623627   0.721064   0.207199
     17       0.427746   0.143162  -0.265311  -0.035981   0.035098   0.010158
     18      -0.028000   0.033403  -0.022445  -0.030505  -0.032747   0.022801
     19       0.003905  -0.008531   0.009510  -0.017172  -0.018099   0.011751
     20      -0.027362   0.029128  -0.019261  -0.006075  -0.005731   0.004930
     21       0.125778  -0.169545   0.139320   0.490604   0.525776  -0.365214
     22      -0.220369   0.285653  -0.243076   0.332515   0.365228  -0.257176
     23       0.339009  -0.383014   0.258620   0.019098   0.015186  -0.009801
     24       0.323334  -0.386923   0.273996  -0.000676  -0.009204   0.002182
     25       0.136629  -0.164519   0.118874  -0.083680  -0.080373   0.072093
     26       0.090890  -0.106588   0.075074   0.078041   0.076459  -0.068149
                  24         25         26    
      0      -0.001284   0.012384  -0.045001
      1      -0.001342   0.005079  -0.020306
      2       0.001658  -0.009935   0.038288
      3      -0.006204  -0.045563   0.143711
      4       0.001516   0.029264  -0.095642
      5       0.000914  -0.008570   0.025962
      6       0.024688  -0.148631   0.567677
      7       0.016442  -0.108948   0.416662
      8      -0.026967   0.165886  -0.634969
      9       0.001366  -0.041374  -0.010763
     10      -0.001550   0.027701   0.008190
     11       0.001080  -0.037344  -0.009764
     12      -0.019246   0.660420   0.173321
     13       0.007816  -0.280703  -0.072221
     14      -0.018181   0.623857   0.163261
     15      -0.001043  -0.007923   0.000010
     16       0.016040  -0.156855  -0.057111
     17      -0.000113  -0.030661  -0.008067
     18       0.005332   0.000769   0.000519
     19       0.047677   0.001963  -0.000973
     20      -0.042893  -0.001551   0.001351
     21      -0.148106  -0.013700  -0.006582
     22      -0.078400  -0.009094  -0.005519
     23      -0.029324  -0.001753   0.002191
     24       0.063980   0.003322  -0.001293
     25      -0.674249  -0.025094   0.021593
     26       0.711007   0.026265  -0.022555


-----------
IR SPECTRUM  
-----------

 Mode    freq (cm**-1)   T**2         TX         TY         TZ
-------------------------------------------------------------------
   6:       177.96   40.709786  ( -2.554540  -5.198353  -2.676049)
   7:       186.17   59.145545  ( -7.178273  -0.882158   2.615291)
   8:       192.19   38.740413  (  6.144432  -0.488285   0.864837)
   9:       210.78  146.888735  (  0.608060  -8.496950  -8.620953)
  10:       222.65    4.365925  ( -1.031894   1.655920   0.747697)
  11:       248.83   33.462817  (  1.389304  -5.457569   1.321964)
  12:       352.79   76.794358  ( -3.726153   7.899313  -0.714840)
  13:       364.72   56.652417  ( -7.338901   1.205416   1.157547)
  14:       456.16  123.006135  (  5.133381   8.550678  -4.851849)
  15:       578.62  160.440146  ( 10.861424   5.987735   2.572284)
  16:       672.34  292.635895  (  8.734440  -9.320254 -11.378854)
  17:       866.75    9.701856  ( -0.524571  -1.531346   2.661139)
  18:      1643.04   90.855519  (  7.529163   2.019581   5.485300)
  19:      1645.59   76.722726  ( -1.545673   7.053735  -4.957665)
  20:      1670.03   12.176828  ( -0.121194   1.708992  -3.039981)
  21:      3558.01   12.404147  (  3.318213  -1.178904   0.061618)
  22:      3621.43  568.637825  (  0.566835  23.831855  -0.599358)
  23:      3631.08  526.780667  (-22.945067   0.518570   0.188772)
  24:      3883.23   83.709636  ( -3.091983  -7.488959   4.250267)
  25:      3888.66   81.607403  (  3.008402  -6.973924   4.890940)
  26:      3889.17  105.358346  (  9.825013  -0.408768  -2.942851)

The first frequency considered to be a vibration is 6
The total number of vibrations considered is 21


--------------------------
THERMOCHEMISTRY AT 298.15K
--------------------------

Temperature         ... 298.15 K
Pressure            ... 1.00 atm
Total Mass          ... 54.05 AMU

Throughout the following assumptions are being made:
  (1) The electronic state is orbitally nondegenerate
  (2) There are no thermally accessible electronically excited states
  (3) Hindered rotations indicated by low frequency modes are not
      treated as such but are treated as vibrations and this may
      cause some error
  (4) All equations used are the standard statistical mechanics
      equations for an ideal gas
  (5) All vibrations are strictly harmonic

freq.     177.96  E(vib)   ...       0.37 
freq.     186.17  E(vib)   ...       0.37 
freq.     192.19  E(vib)   ...       0.36 
freq.     210.78  E(vib)   ...       0.34 
freq.     222.65  E(vib)   ...       0.33 
freq.     248.83  E(vib)   ...       0.31 
freq.     352.79  E(vib)   ...       0.22 
freq.     364.72  E(vib)   ...       0.22 
freq.     456.16  E(vib)   ...       0.16 
freq.     578.62  E(vib)   ...       0.11 
freq.     672.34  E(vib)   ...       0.08 
freq.     866.75  E(vib)   ...       0.04 
freq.    1643.04  E(vib)   ...       0.00 
freq.    1645.59  E(vib)   ...       0.00 
freq.    1670.03  E(vib)   ...       0.00 
freq.    3558.01  E(vib)   ...       0.00 
freq.    3621.43  E(vib)   ...       0.00 
freq.    3631.08  E(vib)   ...       0.00 
freq.    3883.23  E(vib)   ...       0.00 
freq.    3888.66  E(vib)   ...       0.00 
freq.    3889.17  E(vib)   ...       0.00 

------------
INNER ENERGY
------------

The inner energy is: U= E(el) + E(ZPE) + E(vib) + E(rot) + E(trans)
    E(el)   - is the total energy from the electronic structure calculation
              = E(kin-el) + E(nuc-el) + E(el-el) + E(nuc-nuc)
    E(ZPE)  - the the zero temperature vibrational energy from the frequency calculation
    E(vib)  - the the finite temperature correction to E(ZPE) due to population
              of excited vibrational states
    E(rot)  - is the rotational thermal energy
    E(trans)- is the translational thermal energy

Summary of contributions to the inner energy U:
Electronic energy                ...   -229.27029373 Eh
Zero point energy                ...      0.07281068 Eh      45.69 kcal/mol
Thermal vibrational correction   ...      0.00463785 Eh       2.91 kcal/mol
Thermal rotational correction    ...      0.00141627 Eh       0.89 kcal/mol
Thermal translational correction ...      0.00141627 Eh       0.89 kcal/mol
-----------------------------------------------------------------------
Total thermal energy                   -229.19001266 Eh


Summary of corrections to the electronic energy:
(perhaps to be used in another calculation)
Total thermal correction                  0.00747039 Eh       4.69 kcal/mol
Non-thermal (ZPE) correction              0.07281068 Eh      45.69 kcal/mol
-----------------------------------------------------------------------
Total correction                          0.08028107 Eh      50.38 kcal/mol


--------
ENTHALPY
--------

The enthalpy is H = U + kB*T
                kB is Boltzmann's constant
Total free energy                 ...   -229.19001266 Eh 
Thermal Enthalpy correction       ...      0.00094421 Eh       0.59 kcal/mol
-----------------------------------------------------------------------
Total Enthalpy                    ...   -229.18906845 Eh


Note: Only C1 symmetry has been detected, increase convergence thresholds 
      if your molecule has a higher symmetry. Symmetry factor of 1.0 is   
      used for the rotational entropy correction. 
 

Note: Rotational entropy computed according to Herzberg 
Infrared and Raman Spectra, Chapter V,1, Van Nostrand Reinhold, 1945 
Point Group:  C1, Symmetry Number:   1  
Rotational constants in cm-1:     0.231073     0.228050     0.116885 

Vibrational entropy computed according to the QRRHO of S. Grimme
Chem.Eur.J. 2012 18 9955


-------
ENTROPY
-------

The entropy contributions are T*S = T*(S(el)+S(vib)+S(rot)+S(trans))
     S(el)   - electronic entropy
     S(vib)  - vibrational entropy
     S(rot)  - rotational entropy
     S(trans)- translational entropy
The entropies will be listed as mutliplied by the temperature to get
units of energy

Electronic entropy                ...      0.00000000 Eh      0.00 kcal/mol
Vibrational entropy               ...      0.00788161 Eh      4.95 kcal/mol
Rotational entropy                ...      0.01191364 Eh      7.48 kcal/mol
Translational entropy             ...      0.01799974 Eh     11.29 kcal/mol
-----------------------------------------------------------------------
Final entropy term                ...      0.03779499 Eh     23.72 kcal/mol

In case the symmetry of your molecule has not been determined correctly
or in case you have a reason to use a different symmetry number we print 
out the resulting rotational entropy values for sn=1,12 :
 --------------------------------------------------------
|  sn= 1 | S(rot)=       0.01191364 Eh      7.48 kcal/mol|
|  sn= 2 | S(rot)=       0.01125919 Eh      7.07 kcal/mol|
|  sn= 3 | S(rot)=       0.01087635 Eh      6.83 kcal/mol|
|  sn= 4 | S(rot)=       0.01060473 Eh      6.65 kcal/mol|
|  sn= 5 | S(rot)=       0.01039404 Eh      6.52 kcal/mol|
|  sn= 6 | S(rot)=       0.01022190 Eh      6.41 kcal/mol|
|  sn= 7 | S(rot)=       0.01007635 Eh      6.32 kcal/mol|
|  sn= 8 | S(rot)=       0.00995027 Eh      6.24 kcal/mol|
|  sn= 9 | S(rot)=       0.00983906 Eh      6.17 kcal/mol|
|  sn=10 | S(rot)=       0.00973959 Eh      6.11 kcal/mol|
|  sn=11 | S(rot)=       0.00964960 Eh      6.06 kcal/mol|
|  sn=12 | S(rot)=       0.00956744 Eh      6.00 kcal/mol|
 --------------------------------------------------------


-------------------
GIBBS FREE ENERGY
-------------------

The Gibbs free energy is G = H - T*S

Total enthalpy                    ...   -229.18906845 Eh 
Total entropy correction          ...     -0.03779499 Eh    -23.72 kcal/mol
-----------------------------------------------------------------------
Final Gibbs free energy         ...   -229.22686344 Eh

For completeness - the Gibbs free energy minus the electronic energy
G-E(el)                           ...      0.04343029 Eh     27.25 kcal/mol


Total Time for Numerical Frequencies  :       936.402 sec

Timings for individual modules:

Sum of individual times         ...      118.025 sec (=   1.967 min)
GTO integral calculation        ...        3.873 sec (=   0.065 min)   3.3 %
SCF iterations                  ...       13.005 sec (=   0.217 min)  11.0 %
MP2 module                      ...      100.734 sec (=   1.679 min)  85.3 %
Geometry relaxation             ...        0.413 sec (=   0.007 min)   0.4 %
                             ****ORCA TERMINATED NORMALLY****
TOTAL RUN TIME: 0 days 0 hours 17 minutes 17 seconds 70 msec
