
                                 *****************
                                 * O   R   C   A *
                                 *****************

           --- An Ab Initio, DFT and Semiempirical electronic structure package ---

                  #######################################################
                  #                        -***-                        #
                  #          Department of theory and spectroscopy      #
                  #               Directorship: Frank Neese             #
                  #        Max Planck Institute fuer Kohlenforschung    #
                  #                Kaiser Wilhelm Platz 1               #
                  #                 D-45470 Muelheim/Ruhr               #
                  #                      Germany                        #
                  #                                                     #
                  #                  All rights reserved                #
                  #                        -***-                        #
                  #######################################################


                         Program Version 4.2.0 -  RELEASE  -


 With contributions from (in alphabetic order):
   Daniel Aravena         : Magnetic Suceptibility
   Michael Atanasov       : Ab Initio Ligand Field Theory (pilot matlab implementation)
   Alexander A. Auer      : GIAO ZORA, VPT2
   Ute Becker             : Parallelization
   Giovanni Bistoni       : ED, misc. LED, open-shell LED, HFLED
   Martin Brehm           : Molecular dynamics
   Dmytro Bykov           : SCF Hessian
   Vijay G. Chilkuri      : MRCI spin determinant printing, contributions to CSF-ICE
   Dipayan Datta          : RHF DLPNO-CCSD density
   Achintya Kumar Dutta   : EOM-CC, STEOM-CC
   Dmitry Ganyushin       : Spin-Orbit,Spin-Spin,Magnetic field MRCI
   Miquel Garcia          : C-PCM Hessian, Gaussian charge scheme
   Yang Guo               : DLPNO-NEVPT2, CIM, IAO-localization
   Andreas Hansen         : Spin unrestricted coupled pair/coupled cluster methods
   Benjamin Helmich-Paris : CASSCF linear response (MC-RPA)
   Lee Huntington         : MR-EOM, pCC
   Robert Izsak           : Overlap fitted RIJCOSX, COSX-SCS-MP3, EOM
   Christian Kollmar      : KDIIS, OOCD, Brueckner-CCSD(T), CCSD density
   Simone Kossmann        : Meta GGA functionals, TD-DFT gradient, OOMP2, MP2 Hessian
   Martin Krupicka        : AUTO-CI
   Lucas Lang             : DCDCAS
   Dagmar Lenk            : GEPOL surface, SMD
   Dimitrios Liakos       : Extrapolation schemes; Compound Job, initial MDCI parallelization
   Dimitrios Manganas     : Further ROCIS development; embedding schemes
   Dimitrios Pantazis     : SARC Basis sets
   Taras Petrenko         : DFT Hessian,TD-DFT gradient, ASA, ECA, R-Raman, ABS, FL, XAS/XES, NRVS
   Peter Pinski           : DLPNO-MP2, DLPNO-MP2 Gradient
   Christoph Reimann      : Effective Core Potentials
   Marius Retegan         : Local ZFS, SOC
   Christoph Riplinger    : Optimizer, TS searches, QM/MM, DLPNO-CCSD(T), (RO)-DLPNO pert. Triples
   Tobias Risthaus        : Range-separated hybrids, TD-DFT gradient, RPA, STAB
   Michael Roemelt        : Original ROCIS implementation
   Masaaki Saitow         : Open-shell DLPNO-CCSD energy and density
   Barbara Sandhoefer     : DKH picture change effects
   Avijit Sen             : IP-ROCIS
   Kantharuban Sivalingam : CASSCF convergence, NEVPT2, FIC-MRCI
   Bernardo de Souza      : ESD, SOC TD-DFT
   Georgi Stoychev        : AutoAux, RI-MP2 NMR
   Willem Van den Heuvel  : Paramagnetic NMR
   Boris Wezisla          : Elementary symmetry handling
   Frank Wennmohs         : Technical directorship


 We gratefully acknowledge several colleagues who have allowed us to
 interface, adapt or use parts of their codes:
   Stefan Grimme, W. Hujo, H. Kruse,             : VdW corrections, initial TS optimization,
                  C. Bannwarth                     DFT functionals, gCP, sTDA/sTD-DF
   Ed Valeev, F. Pavosevic, A. Kumar             : LibInt (2-el integral package), F12 methods
   Garnet Chan, S. Sharma, J. Yang, R. Olivares  : DMRG
   Ulf Ekstrom                                   : XCFun DFT Library
   Mihaly Kallay                                 : mrcc  (arbitrary order and MRCC methods)
   Andreas Klamt, Michael Diedenhofen            : otool_cosmo (COSMO solvation model)
   Jiri Pittner, Ondrej Demel                    : Mk-CCSD
   Frank Weinhold                                : gennbo (NPA and NBO analysis)
   Christopher J. Cramer and Donald G. Truhlar   : smd solvation model
   Lars Goerigk                                  : TD-DFT with DH, B97 family of functionals
   V. Asgeirsson, H. Jonsson                     : NEB implementation
   FAccTs GmbH                                   : IRC, NEB, NEB-TS, Multilevel, MM, QM/MM, CI optimization
   S Lehtola, MJT Oliveira, MAL Marques          : LibXC Library


 Your calculation uses the libint2 library for the computation of 2-el integrals
 For citations please refer to: http://libint.valeyev.net

 Your ORCA version has been built with support for libXC version: 4.2.3
 For citations please refer to: https://tddft.org/programs/libxc/

 This ORCA versions uses:
   CBLAS   interface :  Fast vector & matrix operations
   LAPACKE interface :  Fast linear algebra routines
   SCALAPACK package :  Parallel linear algebra routines


Your calculation utilizes the atom-pairwise dispersion correction
with the Becke-Johnson damping scheme (D3BJ)
Cite in your paper:
S.Grimme, S.Ehrlich, L.Goerigk, J Comput Chem, (2011), 32, 1456–1465 
S.Grimme, J.Antony, S.Ehrlich and H.Krieg, J.Chem.Phys., 132, (2010), 154104 
   

----- Orbital basis set information -----
Your calculation utilizes the basis: aug-cc-pV(T+d)Z 
             Al - Ar: T.H. Dunning, Jr., K. A. Peterson and A. K. Wilson, J. Chem. Phys.
                      114, 9244 (2001)

----- AuxC basis set information -----
Your calculation utilizes the auxiliary basis: def2-TZVP/C
  H-La, Hf-Rn : A. Hellweg, C. Hattig, S. Hofener and W. Klopper, Theor. Chem. Acc. 117, 587 (2007).
        Ce-Lu : J. Chmela and M. E. Harding, Mol. Phys. (2018).

----- AuxJK basis set information -----
Your calculation utilizes the auxiliary basis: def2/JK
   H-Ba, Hf-Rn: F. Weigend, J. Comput. Chem. 29, 167 (2008).

================================================================================
                                        WARNINGS
                       Please study these warnings very carefully!
================================================================================


WARNING: The frozen-core approximation for MP2-gradient calculations is turned on by default.

WARNING: Geometry Optimization
  ===> : Switching off AutoStart
         For restart on a previous wavefunction, please use MOREAD

WARNING: The frozen-core approximation is turned on by default for 
         the MP2 part of double-hybrid DFT.

INFO   : the flag for use of LIBINT has been found!

================================================================================
                                       INPUT FILE
================================================================================
NAME = 04_H2O_4.in
|  1> #
|  2> # 04_H2O_4 b2-plyp/aug-cc-pvt(+d)z
|  3> #
|  4> ! rijk ri-b2plyp d3bj aug-cc-pvt(+d)z def2/jk def2-tzvp/c grid4 nofinalgrid opt xyzfile numfreq
|  5> 
|  6> *xyz 0 1
|  7> O	1.372659		-1.372658	0.015734
|  8> H	0.406261		-1.511316	-0.008945
|  9> H	1.683553		-1.872433	0.772059
| 10> O	-1.372658		-1.372658	-0.015734
| 11> H	-1.511316		-0.406261	0.008945
| 12> H	-1.872433		-1.683553	-0.772059
| 13> O	-1.372658		1.372659	0.015734
| 14> H	-0.406261		1.511317	-0.008945
| 15> H	-1.683553		1.872433	0.772059
| 16> O	1.372659		1.372659	-0.015734
| 17> H	1.511317		0.406261	0.008945
| 18> H	1.872433		1.683553	-0.772059
| 19> *
| 20> 
| 21> %maxcore 5000
| 22> 
| 23> %pal
| 24> nprocs 24
| 25> end
| 26> 
| 27> 
| 28>                          ****END OF INPUT****
================================================================================

                       *****************************
                       * Geometry Optimization Run *
                       *****************************

Geometry optimization settings:
Update method            Update   .... BFGS
Choice of coordinates    CoordSys .... Z-matrix Internals
Initial Hessian          InHess   .... Almoef's Model

Convergence Tolerances:
Energy Change            TolE     ....  5.0000e-06 Eh
Max. Gradient            TolMAXG  ....  3.0000e-04 Eh/bohr
RMS Gradient             TolRMSG  ....  1.0000e-04 Eh/bohr
Max. Displacement        TolMAXD  ....  4.0000e-03 bohr
RMS Displacement         TolRMSD  ....  2.0000e-03 bohr
Strict Convergence                ....  False
------------------------------------------------------------------------------
                        ORCA OPTIMIZATION COORDINATE SETUP
------------------------------------------------------------------------------

The optimization will be done in new redundant internal coordinates
Making redundant internal coordinates   ...  (new redundants) done
Evaluating the initial hessian          ...  (Almloef) done
Evaluating the coordinates              ...  done
Calculating the B-matrix                .... done
Calculating the G-matrix                .... done
Diagonalizing the G-matrix              .... done
The first mode is                       ....   94
The number of degrees of freedom        ....   30

    -----------------------------------------------------------------
                    Redundant Internal Coordinates


    -----------------------------------------------------------------
         Definition                    Initial Value    Approx d2E/dq
    -----------------------------------------------------------------
      1. B(H   1,O   0)                  0.9766         0.489184   
      2. B(H   2,O   0)                  0.9584         0.523094   
      3. B(O   3,H   1)                  1.7843         0.025165   
      4. B(H   4,H   1)                  2.2133         0.001113   
      5. B(H   4,O   3)                  0.9766         0.489186   
      6. B(H   5,O   3)                  0.9584         0.523094   
      7. B(O   6,H   4)                  1.7843         0.025165   
      8. B(H   7,O   6)                  0.9766         0.489186   
      9. B(H   7,H   4)                  2.2133         0.001113   
     10. B(H   8,O   6)                  0.9584         0.523095   
     11. B(O   9,H   7)                  1.7843         0.025165   
     12. B(H  10,O   9)                  0.9766         0.489184   
     13. B(H  10,H   1)                  2.2133         0.001113   
     14. B(H  10,O   0)                  1.7843         0.025165   
     15. B(H  10,H   7)                  2.2133         0.001113   
     16. B(H  11,O   9)                  0.9584         0.523095   
     17. A(H   1,O   0,H  10)          102.6121         0.204712   
     18. A(H   2,O   0,H  10)          119.8481         0.206481   
     19. A(H   1,O   0,H   2)          105.4806         0.318954   
     20. A(O   0,H   1,O   3)          167.3198         0.204712   
     21. A(O   0,H   1,H  10)           51.8821         0.135215   
     22. A(O   0,H   1,H   4)          141.8365         0.135215   
     23. A(H   4,H   1,H  10)           89.9963         0.098430   
     24. A(O   3,H   1,H   4)           25.5058         0.112611   
     25. A(O   3,H   1,H  10)          115.4978         0.112611   
     26. A(H   1,O   3,H   4)          102.6121         0.204712   
     27. A(H   4,O   3,H   5)          105.4807         0.318954   
     28. A(H   1,O   3,H   5)          119.8481         0.206481   
     29. A(O   3,H   4,H   7)          141.8365         0.135215   
     30. A(O   6,H   4,H   7)           25.5058         0.112611   
     31. A(H   1,H   4,H   7)           89.9963         0.098430   
     32. A(H   1,H   4,O   6)          115.4978         0.112611   
     33. A(O   3,H   4,O   6)          167.3198         0.204712   
     34. A(H   1,H   4,O   3)           51.8821         0.135215   
     35. A(H   7,O   6,H   8)          105.4807         0.318954   
     36. A(H   4,O   6,H   8)          119.8480         0.206481   
     37. A(H   4,O   6,H   7)          102.6121         0.204712   
     38. A(H   4,H   7,O   9)          115.4978         0.112611   
     39. A(O   6,H   7,O   9)          167.3198         0.204712   
     40. A(H   4,H   7,O   6)           51.8821         0.135215   
     41. A(O   9,H   7,H  10)           25.5058         0.112611   
     42. A(H   4,H   7,H  10)           89.9962         0.098430   
     43. A(O   6,H   7,H  10)          141.8365         0.135215   
     44. A(H   7,O   9,H  11)          119.8480         0.206481   
     45. A(H   7,O   9,H  10)          102.6121         0.204712   
     46. A(H  10,O   9,H  11)          105.4807         0.318954   
     47. A(O   0,H  10,O   9)          167.3198         0.204712   
     48. A(O   0,H  10,H   1)           25.5058         0.112611   
     49. A(H   1,H  10,O   9)          141.8365         0.135215   
     50. A(H   1,H  10,H   7)           89.9962         0.098430   
     51. A(O   0,H  10,H   7)          115.4978         0.112611   
     52. A(H   7,H  10,O   9)           51.8821         0.135215   
     53. D(H  10,H   1,O   0,H   2)    126.2406         0.357621   
     54. D(O   3,H   1,O   0,H   2)    120.2411         0.357621   
     55. D(H   4,H   1,O   0,H   2)    123.0995         0.357621   
     56. D(O   3,H   1,O   0,H  10)     -5.9995         0.357621   
     57. D(H   4,H   1,O   0,H  10)     -3.1411         0.357621   
     58. D(H   4,O   3,H   1,O   0)      4.1036         0.001912   
     59. D(H   4,O   3,H   1,H  10)     -1.1235         0.001912   
     60. D(H   5,O   3,H   1,H   4)    116.3425         0.001912   
     61. D(H   5,O   3,H   1,O   0)    120.4460         0.001912   
     62. D(H   5,O   3,H   1,H  10)    115.2190         0.001912   
     63. D(O   6,H   4,H   1,O   3)   -178.5435         0.001515   
     64. D(O   3,H   4,H   1,H  10)    178.9859         0.001515   
     65. D(O   6,H   4,H   1,H  10)      0.4425         0.001515   
     66. D(O   6,H   4,H   1,O   0)      2.9132         0.001515   
     67. D(H   7,H   4,O   3,H   1)      3.1411         0.357624   
     68. D(O   6,H   4,O   3,H   1)      5.9995         0.357624   
     69. D(O   6,H   4,O   3,H   5)   -120.2411         0.357624   
     70. D(H   1,H   4,O   3,H   5)   -126.2406         0.357624   
     71. D(H   7,H   4,H   1,O   3)   -178.0597         0.001515   
     72. D(H   7,H   4,H   1,H  10)      0.9262         0.001515   
     73. D(H   7,H   4,O   3,H   5)   -123.0995         0.357624   
     74. D(O   3,H   4,H   1,O   0)   -178.5433         0.001515   
     75. D(H   7,H   4,H   1,O   0)      3.3970         0.001515   
     76. D(H   8,O   6,H   4,H   1)   -115.2189         0.001912   
     77. D(H   8,O   6,H   4,H   7)   -116.3425         0.001912   
     78. D(H   8,O   6,H   4,O   3)   -120.4460         0.001912   
     79. D(H   7,O   6,H   4,H   1)      1.1235         0.001912   
     80. D(H   7,O   6,H   4,O   3)     -4.1036         0.001912   
     81. D(O   6,H   7,H   4,O   3)    178.5433         0.001515   
     82. D(O   6,H   7,H   4,H   1)   -178.9859         0.001515   
     83. D(O   9,H   7,H   4,O   3)     -2.9132         0.001515   
     84. D(H  10,H   7,O   6,H   4)     -3.1411         0.357624   
     85. D(H  10,H   7,O   6,H   8)    123.0994         0.357624   
     86. D(O   9,H   7,O   6,H   8)    120.2410         0.357624   
     87. D(H   4,H   7,O   6,H   8)    126.2405         0.357624   
     88. D(H  10,H   7,H   4,O   6)    178.0597         0.001515   
     89. D(H  10,H   7,H   4,H   1)     -0.9262         0.001515   
     90. D(O   9,H   7,O   6,H   4)     -5.9995         0.357624   
     91. D(H  10,H   7,H   4,O   3)     -3.3970         0.001515   
     92. D(O   9,H   7,H   4,O   6)    178.5435         0.001515   
     93. D(O   9,H   7,H   4,H   1)     -0.4425         0.001515   
     94. D(H  11,O   9,H   7,H  10)    116.3424         0.001912   
     95. D(H  11,O   9,H   7,H   4)    115.2189         0.001912   
     96. D(H  11,O   9,H   7,O   6)    120.4460         0.001912   
     97. D(H  10,O   9,H   7,H   4)     -1.1235         0.001912   
     98. D(H  10,O   9,H   7,O   6)      4.1036         0.001912   
     99. D(O   0,H  10,H   7,O   6)      2.9132         0.001515   
    100. D(O   9,H  10,H   7,H   4)    178.9859         0.001515   
    101. D(O   9,H  10,H   7,O   6)   -178.5433         0.001515   
    102. D(H   7,H  10,H   1,O   3)     -0.4425         0.001515   
    103. D(H   7,H  10,H   1,O   0)   -178.9859         0.001515   
    104. D(O   0,H  10,H   1,H   4)    178.0597         0.001515   
    105. D(O   0,H  10,H   1,O   3)    178.5435         0.001515   
    106. D(O   9,H  10,H   1,H   4)     -3.3970         0.001515   
    107. D(O   9,H  10,H   1,O   3)     -2.9132         0.001515   
    108. D(O   9,H  10,H   1,O   0)    178.5433         0.001515   
    109. D(H   7,H  10,O   0,H   2)   -115.2189         0.001912   
    110. D(H   7,H  10,H   1,H   4)     -0.9262         0.001515   
    111. D(H   7,H  10,O   0,H   1)      1.1235         0.001912   
    112. D(H   1,H  10,O   0,H   2)   -116.3424         0.001912   
    113. D(O   9,H  10,O   0,H   2)   -120.4460         0.001912   
    114. D(O   0,H  10,H   7,H   4)      0.4425         0.001515   
    115. D(O   9,H  10,O   0,H   1)     -4.1036         0.001912   
    116. D(H   7,H  10,O   9,H  11)   -126.2405         0.357621   
    117. D(H   1,H  10,O   9,H  11)   -123.0994         0.357621   
    118. D(O   0,H  10,O   9,H   7)      5.9995         0.357621   
    119. D(O   0,H  10,O   9,H  11)   -120.2410         0.357621   
    120. D(H   1,H  10,H   7,O   9)   -178.0597         0.001515   
    121. D(H   1,H  10,H   7,H   4)      0.9262         0.001515   
    122. D(H   1,H  10,O   9,H   7)      3.1411         0.357621   
    123. D(H   1,H  10,H   7,O   6)      3.3970         0.001515   
    124. D(O   0,H  10,H   7,O   9)   -178.5435         0.001515   
    -----------------------------------------------------------------

Number of atoms                         .... 12
Number of degrees of freedom            .... 124

         *************************************************************
         *                GEOMETRY OPTIMIZATION CYCLE   1            *
         *************************************************************
---------------------------------
CARTESIAN COORDINATES (ANGSTROEM)
---------------------------------
  O      1.372659   -1.372658    0.015734
  H      0.406261   -1.511316   -0.008945
  H      1.683553   -1.872433    0.772059
  O     -1.372658   -1.372658   -0.015734
  H     -1.511316   -0.406261    0.008945
  H     -1.872433   -1.683553   -0.772059
  O     -1.372658    1.372659    0.015734
  H     -0.406261    1.511317   -0.008945
  H     -1.683553    1.872433    0.772059
  O      1.372659    1.372659   -0.015734
  H      1.511317    0.406261    0.008945
  H      1.872433    1.683553   -0.772059

----------------------------
CARTESIAN COORDINATES (A.U.)
----------------------------
  NO LB      ZA    FRAG     MASS         X           Y           Z
   0 O     8.0000    0    15.999    2.593950   -2.593948    0.029733
   1 H     1.0000    0     1.008    0.767722   -2.855973   -0.016904
   2 H     1.0000    0     1.008    3.181454   -3.538386    1.458980
   3 O     8.0000    0    15.999   -2.593948   -2.593948   -0.029733
   4 H     1.0000    0     1.008   -2.855973   -0.767722    0.016904
   5 H     1.0000    0     1.008   -3.538386   -3.181454   -1.458980
   6 O     8.0000    0    15.999   -2.593948    2.593950    0.029733
   7 H     1.0000    0     1.008   -0.767722    2.855975   -0.016904
   8 H     1.0000    0     1.008   -3.181454    3.538386    1.458980
   9 O     8.0000    0    15.999    2.593950    2.593950   -0.029733
  10 H     1.0000    0     1.008    2.855975    0.767722    0.016904
  11 H     1.0000    0     1.008    3.538386    3.181454   -1.458980

--------------------------------
INTERNAL COORDINATES (ANGSTROEM)
--------------------------------
 O      0   0   0     0.000000000000     0.00000000     0.00000000
 H      1   0   0     0.976606465476     0.00000000     0.00000000
 H      1   2   0     0.958361954319   105.48063347     0.00000000
 O      2   1   3     1.784327587649   167.31984179   120.24107791
 H      4   2   1     0.976605475929   102.61211353     4.10356285
 H      4   2   1     0.958362278721   119.84805779   120.44602620
 O      5   4   2     1.784328584618   167.31983583     5.99948704
 H      7   5   4     0.976605475929   102.61211104   355.89643243
 H      7   5   4     0.958361757233   119.84800790   239.55397543
 O      8   7   5     1.784328584618   167.31983583   354.00051315
 H     10   8   7     0.976606465476   102.61210273     4.10356916
 H     10   8   7     0.958361432831   119.84802438   120.44596220

---------------------------
INTERNAL COORDINATES (A.U.)
---------------------------
 O      0   0   0     0.000000000000     0.00000000     0.00000000
 H      1   0   0     1.845518760366     0.00000000     0.00000000
 H      1   2   0     1.811041630832   105.48063347     0.00000000
 O      2   1   3     3.371890473857   167.31984179   120.24107791
 H      4   2   1     1.845516890393   102.61211353     4.10356285
 H      4   2   1     1.811042243863   119.84805779   120.44602620
 O      5   4   2     3.371892357855   167.31983583     5.99948704
 H      7   5   4     1.845516890393   102.61211104   355.89643243
 H      7   5   4     1.811041258393   119.84800790   239.55397543
 O      8   7   5     3.371892357855   167.31983583   354.00051315
 H     10   8   7     1.845518760366   102.61210273     4.10356916
 H     10   8   7     1.811040645362   119.84802438   120.44596220

---------------------
BASIS SET INFORMATION
---------------------
There are 2 groups of distinct atoms

 Group   1 Type O   : 19s6p3d2f contracted to 5s4p3d2f pattern {88111/3111/111/11}
 Group   2 Type H   : 6s3p2d contracted to 4s3p2d pattern {3111/111/11}

Atom   0O    basis set group =>   1
Atom   1H    basis set group =>   2
Atom   2H    basis set group =>   2
Atom   3O    basis set group =>   1
Atom   4H    basis set group =>   2
Atom   5H    basis set group =>   2
Atom   6O    basis set group =>   1
Atom   7H    basis set group =>   2
Atom   8H    basis set group =>   2
Atom   9O    basis set group =>   1
Atom  10H    basis set group =>   2
Atom  11H    basis set group =>   2
---------------------------------
AUXILIARY/C BASIS SET INFORMATION
---------------------------------
There are 2 groups of distinct atoms

 Group   1 Type O   : 8s6p5d3f1g contracted to 8s6p4d3f1g pattern {11111111/111111/2111/111/1}
 Group   2 Type H   : 4s3p2d contracted to 4s2p1d pattern {1111/21/2}

Atom   0O    basis set group =>   1
Atom   1H    basis set group =>   2
Atom   2H    basis set group =>   2
Atom   3O    basis set group =>   1
Atom   4H    basis set group =>   2
Atom   5H    basis set group =>   2
Atom   6O    basis set group =>   1
Atom   7H    basis set group =>   2
Atom   8H    basis set group =>   2
Atom   9O    basis set group =>   1
Atom  10H    basis set group =>   2
Atom  11H    basis set group =>   2
----------------------------------
AUXILIARY/JK BASIS SET INFORMATION
----------------------------------
There are 2 groups of distinct atoms

 Group   1 Type O   : 14s10p6d2f1g contracted to 10s8p4d2f1g pattern {5111111111/31111111/3111/11/1}
 Group   2 Type H   : 4s2p2d contracted to 2s2p2d pattern {31/11/11}

Atom   0O    basis set group =>   1
Atom   1H    basis set group =>   2
Atom   2H    basis set group =>   2
Atom   3O    basis set group =>   1
Atom   4H    basis set group =>   2
Atom   5H    basis set group =>   2
Atom   6O    basis set group =>   1
Atom   7H    basis set group =>   2
Atom   8H    basis set group =>   2
Atom   9O    basis set group =>   1
Atom  10H    basis set group =>   2
Atom  11H    basis set group =>   2


           ************************************************************
           *        Program running with 24 parallel MPI-processes    *
           *              working on a common directory               *
           ************************************************************
------------------------------------------------------------------------------
                           ORCA GTO INTEGRAL CALCULATION
                           -- RI-GTO INTEGRALS CHOSEN --
------------------------------------------------------------------------------

                         BASIS SET STATISTICS AND STARTUP INFO

Gaussian basis set:
 # of primitive gaussian shells          ...  208
 # of primitive gaussian functions       ...  464
 # of contracted shells                  ...  128
 # of contracted basis functions         ...  368
 Highest angular momentum                ...    3
 Maximum contraction depth               ...    8
Auxiliary gaussian basis set:
 # of primitive gaussian shells          ...  196
 # of primitive gaussian functions       ...  548
 # of contracted shells                  ...  148
 # of contracted aux-basis functions     ...  452
 Highest angular momentum                ...    4
 Maximum contraction depth               ...    5
Ratio of auxiliary to basis functions    ...  1.23
Integral package used                  ... LIBINT
 One Electron integrals                  ... done
 Ordering auxiliary basis shells         ... done
 Integral threshhold             Thresh  ...  2.500e-11
 Primitive cut-off               TCut    ...  2.500e-12
 Pre-screening matrix                    ... done
 Shell pair data                         ... 
 Ordering of the shell pairs             ... done (   0.001 sec) 8012 of 8256 pairs
 Determination of significant pairs      ... done (   0.000 sec)
 Creation of shell pair data             ... done (   0.001 sec)
 Storage of shell pair data              ... done (   0.005 sec)
 Shell pair data done in (   0.007 sec)
 Computing two index integrals           ... done
 Cholesky decomposition of the V-matrix  ... done


Timings:
 Total evaluation time                   ...   0.302 sec (  0.005 min)
 One electron matrix time                ...   0.050 sec (  0.001 min) = 16.6%
 Schwartz matrix evaluation time         ...   0.144 sec (  0.002 min) = 47.7%
 Two index repulsion integral time       ...   0.003 sec (  0.000 min) =  1.1%
 Cholesky decomposition of V             ...   0.067 sec (  0.001 min) = 22.3%
 Three index repulsion integral time     ...   0.000 sec (  0.000 min) =  0.0%



           ************************************************************
           *        Program running with 24 parallel MPI-processes    *
           *              working on a common directory               *
           ************************************************************
-------------------------------------------------------------------------------
                                 ORCA SCF
-------------------------------------------------------------------------------

------------
SCF SETTINGS
------------
Hamiltonian:
 Density Functional     Method          .... DFT(GTOs)
 Exchange Functional    Exchange        .... B88
   X-Alpha parameter    XAlpha          ....  0.666667
   Becke's b parameter  XBeta           ....  0.004200
 Correlation Functional Correlation     .... LYP
 LDA part of GGA corr.  LDAOpt          .... VWN-3
 Gradients option       PostSCFGGA      .... off
 Hybrid DFT is turned on
   Fraction HF Exchange ScalHFX         ....  0.530000
   Scaling of DF-GGA-X  ScalDFX         ....  0.470000
   Scaling of DF-GGA-C  ScalDFC         ....  0.730000
   Scaling of DF-LDA-C  ScalLDAC        ....  0.730000
   Perturbative correction              ....  0.270000
   Density functional embedding theory  .... OFF
 RI-approximation to the Coulomb term is turned on
   Number of auxiliary basis functions  .... 452
   RI-JK (J+K treated both via RI)      .... on


General Settings:
 Integral files         IntName         .... 04_H2O_4
 Hartree-Fock type      HFTyp           .... RHF
 Total Charge           Charge          ....    0
 Multiplicity           Mult            ....    1
 Number of Electrons    NEL             ....   40
 Basis Dimension        Dim             ....  368
 Nuclear Repulsion      ENuc            ....    141.3596395251 Eh

Convergence Acceleration:
 DIIS                   CNVDIIS         .... on
   Start iteration      DIISMaxIt       ....    12
   Startup error        DIISStart       ....  0.200000
   # of expansion vecs  DIISMaxEq       ....     5
   Bias factor          DIISBfac        ....   1.050
   Max. coefficient     DIISMaxC        ....  10.000
 Newton-Raphson         CNVNR           .... off
 SOSCF                  CNVSOSCF        .... on
   Start iteration      SOSCFMaxIt      ....   150
   Startup grad/error   SOSCFStart      ....  0.003300
 Level Shifting         CNVShift        .... on
   Level shift para.    LevelShift      ....    0.2500
   Turn off err/grad.   ShiftErr        ....    0.0010
 Zerner damping         CNVZerner       .... off
 Static damping         CNVDamp         .... on
   Fraction old density DampFac         ....    0.7000
   Max. Damping (<1)    DampMax         ....    0.9800
   Min. Damping (>=0)   DampMin         ....    0.0000
   Turn off err/grad.   DampErr         ....    0.1000
 Fernandez-Rico         CNVRico         .... off

SCF Procedure:
 Maximum # iterations   MaxIter         ....   125
 SCF integral mode      SCFMode         .... Direct
   Integral package                     .... LIBINT
 Reset frequency        DirectResetFreq ....    20
 Integral Threshold     Thresh          ....  2.500e-11 Eh
 Primitive CutOff       TCut            ....  2.500e-12 Eh

Convergence Tolerance:
 Convergence Check Mode ConvCheckMode   .... Total+1el-Energy
 Convergence forced     ConvForced      .... 0
 Energy Change          TolE            ....  1.000e-08 Eh
 1-El. energy change                    ....  1.000e-05 Eh
 Orbital Gradient       TolG            ....  1.000e-05
 Orbital Rotation angle TolX            ....  1.000e-05
 DIIS Error             TolErr          ....  5.000e-07


Diagonalization of the overlap matrix:
Smallest eigenvalue                        ... 1.138e-04
Time for diagonalization                   ...    0.038 sec
Threshold for overlap eigenvalues          ... 1.000e-08
Number of eigenvalues below threshold      ... 0
Time for construction of square roots      ...    0.016 sec
Total time needed                          ...    0.055 sec

-------------------
DFT GRID GENERATION
-------------------

General Integration Accuracy     IntAcc      ...  4.670
Radial Grid Type                 RadialGrid  ... Gauss-Chebyshev
Angular Grid (max. acc.)         AngularGrid ... Lebedev-302
Angular grid pruning method      GridPruning ... 3 (G Style)
Weight generation scheme         WeightScheme... Becke
Basis function cutoff            BFCut       ...    1.0000e-11
Integration weight cutoff        WCut        ...    1.0000e-14
Grids for H and He will be reduced by one unit

# of grid points (after initial pruning)     ...  52000 (   0.0 sec)
# of grid points (after weights+screening)   ...  49024 (   0.0 sec)
nearest neighbour list constructed           ...    0.0 sec
Grid point re-assignment to atoms done       ...    0.0 sec
Grid point division into batches done        ...    0.1 sec
Reduced shell lists constructed in    0.2 sec

Total number of grid points                  ...    49024
Total number of batches                      ...      772
Average number of points per batch           ...       63
Average number of grid points per atom       ...     4085
Average number of shells per batch           ...    89.65 (70.04%)
Average number of basis functions per batch  ...   249.24 (67.73%)
Average number of large shells per batch     ...    73.50 (81.99%)
Average number of large basis fcns per batch ...   199.44 (80.02%)
Average number of aux-shells per batch       ...    89.65 (60.57%)
Average number of aux functions per batch    ...   249.24 (55.14%)
Maximum spatial batch extension              ...  14.21, 10.44, 11.53 au
Average spatial batch extension              ...   0.12,  0.10,  0.12 au

Time for grid setup =    0.248 sec

------------------------------
INITIAL GUESS: MODEL POTENTIAL
------------------------------
Loading Hartree-Fock densities                     ... done
Calculating cut-offs                               ... done
Setting up the integral package                    ... done
Initializing the effective Hamiltonian             ... done
Starting the Coulomb interaction                   ... done (   0.0 sec)
Reading the grid                                   ... done
Mapping shells                                     ... done
Starting the XC term evaluation                    ... done (   0.1 sec)
  promolecular density results
     # of electrons  =     39.996233363
     EX              =    -35.164104939
     EC              =     -0.449471980
     EX+EC           =    -35.613576919
Transforming the Hamiltonian                       ... done (   0.0 sec)
Diagonalizing the Hamiltonian                      ... done (   0.0 sec)
Back transforming the eigenvectors                 ... done (   0.0 sec)
Now organizing SCF variables                       ... done
                      ------------------
                      INITIAL GUESS DONE (   0.4 sec)
                      ------------------
--------------
SCF ITERATIONS
--------------
ITER       Energy         Delta-E        Max-DP      RMS-DP      [F,P]     Damp
  0   -305.0291825294   0.000000000000 0.03875377  0.00070476  0.3452901 0.7000
  1   -304.8051857174   0.223996812029 0.02820451  0.00065069  0.2504093 0.7000
                               ***Turning on DIIS***
  2   -304.9134997247  -0.108314007383 0.03588737  0.00097389  0.0945723 0.0000
  3   -305.2452567942  -0.331757069419 0.00847101  0.00017077  0.1830834 0.7000
  4   -305.3498789571  -0.104622162930 0.00695169  0.00016349  0.1644929 0.7000
  5   -305.3716929342  -0.021813977141 0.00563325  0.00013366  0.1312776 0.7000
  6   -305.3756961063  -0.004003172024 0.00457021  0.00010891  0.1024710 0.7000
  7   -305.3757648757  -0.000068769468 0.01945166  0.00043068  0.0794026 0.0000
  8   -305.3516114538   0.024153421973 0.00177742  0.00003274  0.0068838 0.0000
                      *** Initiating the SOSCF procedure ***
                           *** Shutting down DIIS ***
                      *** Re-Reading the Fockian *** 
                      *** Removing any level shift *** 
ITER      Energy       Delta-E        Grad      Rot      Max-DP    RMS-DP
  9   -305.35175480  -0.0001433484  0.000286  0.000286  0.000443  0.000010
 10   -305.35176781  -0.0000130114  0.000208  0.000199  0.000388  0.000008
 11   -305.35176781   0.0000000075  0.000216  0.000090  0.000187  0.000003
 12   -305.35176944  -0.0000016301  0.000006  0.000003  0.000012  0.000000
                 **** Energy Check signals convergence ****
              ***Rediagonalizing the Fockian in SOSCF/NRSCF***

               *****************************************************
               *                     SUCCESS                       *
               *           SCF CONVERGED AFTER  13 CYCLES          *
               *****************************************************


----------------
TOTAL SCF ENERGY
----------------

Total Energy       :         -305.35176944 Eh           -8309.04407 eV

Components:
Nuclear Repulsion  :          141.35963953 Eh            3846.59135 eV
Electronic Energy  :         -446.71140896 Eh          -12155.63542 eV
One Electron Energy:         -701.58032328 Eh          -19090.97116 eV
Two Electron Energy:          254.86891432 Eh            6935.33574 eV

Virial components:
Potential Energy   :         -609.50985445 Eh          -16585.60634 eV
Kinetic Energy     :          304.15808501 Eh            8276.56227 eV
Virial Ratio       :            2.00392455


DFT components:
N(Alpha)           :       20.000045026204 electrons
N(Beta)            :       20.000045026204 electrons
N(Total)           :       40.000090052407 electrons
E(X)               :      -16.890880008055 Eh       
E(C)               :       -1.010163221249 Eh       
E(XC)              :      -17.901043229304 Eh       
DFET-embed. en.    :        0.000000000000 Eh       

---------------
SCF CONVERGENCE
---------------

  Last Energy change         ...   -7.3419e-10  Tolerance :   1.0000e-08
  Last MAX-Density change    ...    3.7055e-06  Tolerance :   1.0000e-07
  Last RMS-Density change    ...    7.0478e-08  Tolerance :   5.0000e-09
  Last Orbital Gradient      ...    6.0500e-07  Tolerance :   1.0000e-05
  Last Orbital Rotation      ...    1.2385e-06  Tolerance :   1.0000e-05

             **** THE GBW FILE WAS UPDATED (04_H2O_4.gbw) ****
             **** DENSITY FILE WAS UPDATED (04_H2O_4.scfp) ****
             **** ENERGY FILE WAS UPDATED (04_H2O_4.en.tmp) ****
             **** THE GBW FILE WAS UPDATED (04_H2O_4.gbw) ****
             **** DENSITY FILE WAS UPDATED (04_H2O_4.scfp) ****
----------------
ORBITAL ENERGIES
----------------

  NO   OCC          E(Eh)            E(eV) 
   0   2.0000     -19.728029      -536.8270 
   1   2.0000     -19.728022      -536.8268 
   2   2.0000     -19.728022      -536.8268 
   3   2.0000     -19.728014      -536.8266 
   4   2.0000      -1.167009       -31.7559 
   5   2.0000      -1.152934       -31.3729 
   6   2.0000      -1.152934       -31.3729 
   7   2.0000      -1.139202       -30.9993 
   8   2.0000      -0.625279       -17.0147 
   9   2.0000      -0.612544       -16.6682 
  10   2.0000      -0.612544       -16.6682 
  11   2.0000      -0.603949       -16.4343 
  12   2.0000      -0.513233       -13.9658 
  13   2.0000      -0.478457       -13.0195 
  14   2.0000      -0.478457       -13.0195 
  15   2.0000      -0.444249       -12.0886 
  16   2.0000      -0.400861       -10.9080 
  17   2.0000      -0.398252       -10.8370 
  18   2.0000      -0.398252       -10.8370 
  19   2.0000      -0.397683       -10.8215 
  20   0.0000       0.001116         0.0304 
  21   0.0000       0.021479         0.5845 
  22   0.0000       0.021479         0.5845 
  23   0.0000       0.029018         0.7896 
  24   0.0000       0.052517         1.4291 
  25   0.0000       0.063285         1.7221 
  26   0.0000       0.063285         1.7221 
  27   0.0000       0.066479         1.8090 
  28   0.0000       0.088543         2.4094 
  29   0.0000       0.114734         3.1221 
  30   0.0000       0.119013         3.2385 
  31   0.0000       0.119013         3.2385 
  32   0.0000       0.130964         3.5637 
  33   0.0000       0.144637         3.9358 
  34   0.0000       0.145154         3.9498 
  35   0.0000       0.145154         3.9498 
  36   0.0000       0.170609         4.6425 
  37   0.0000       0.174110         4.7378 
  38   0.0000       0.174111         4.7378 
  39   0.0000       0.190533         5.1847 
  40   0.0000       0.191224         5.2035 
  41   0.0000       0.201871         5.4932 
  42   0.0000       0.201872         5.4932 
  43   0.0000       0.204254         5.5580 
  44   0.0000       0.215126         5.8539 
  45   0.0000       0.242880         6.6091 
  46   0.0000       0.242881         6.6091 
  47   0.0000       0.243908         6.6371 
  48   0.0000       0.259328         7.0567 
  49   0.0000       0.285641         7.7727 
  50   0.0000       0.311214         8.4686 
  51   0.0000       0.311214         8.4686 
  52   0.0000       0.326778         8.8921 
  53   0.0000       0.326779         8.8921 
  54   0.0000       0.326973         8.8974 
  55   0.0000       0.328922         8.9504 
  56   0.0000       0.347057         9.4439 
  57   0.0000       0.355695         9.6789 
  58   0.0000       0.366972         9.9858 
  59   0.0000       0.370536        10.0828 
  60   0.0000       0.370539        10.0829 
  61   0.0000       0.377870        10.2824 
  62   0.0000       0.387755        10.5514 
  63   0.0000       0.391378        10.6499 
  64   0.0000       0.391379        10.6500 
  65   0.0000       0.412795        11.2327 
  66   0.0000       0.412795        11.2327 
  67   0.0000       0.420921        11.4539 
  68   0.0000       0.431451        11.7404 
  69   0.0000       0.434029        11.8105 
  70   0.0000       0.439545        11.9606 
  71   0.0000       0.439545        11.9606 
  72   0.0000       0.499348        13.5879 
  73   0.0000       0.502966        13.6864 
  74   0.0000       0.502967        13.6864 
  75   0.0000       0.519701        14.1418 
  76   0.0000       0.529914        14.4197 
  77   0.0000       0.585668        15.9368 
  78   0.0000       0.585669        15.9369 
  79   0.0000       0.586146        15.9498 
  80   0.0000       0.593514        16.1503 
  81   0.0000       0.614092        16.7103 
  82   0.0000       0.674507        18.3543 
  83   0.0000       0.674507        18.3543 
  84   0.0000       0.694922        18.9098 
  85   0.0000       0.710453        19.3324 
  86   0.0000       0.723021        19.6744 
  87   0.0000       0.724688        19.7198 
  88   0.0000       0.724689        19.7198 
  89   0.0000       0.743275        20.2255 
  90   0.0000       0.744451        20.2575 
  91   0.0000       0.744451        20.2575 
  92   0.0000       0.754055        20.5189 
  93   0.0000       0.773958        21.0605 
  94   0.0000       0.784247        21.3404 
  95   0.0000       0.784248        21.3405 
  96   0.0000       0.805515        21.9192 
  97   0.0000       0.809359        22.0238 
  98   0.0000       0.809359        22.0238 
  99   0.0000       0.852621        23.2010 
 100   0.0000       0.862751        23.4766 
 101   0.0000       0.862751        23.4767 
 102   0.0000       0.870926        23.6991 
 103   0.0000       0.880772        23.9670 
 104   0.0000       0.891215        24.2512 
 105   0.0000       0.891724        24.2650 
 106   0.0000       0.891725        24.2651 
 107   0.0000       0.905594        24.6425 
 108   0.0000       0.905597        24.6426 
 109   0.0000       0.913728        24.8638 
 110   0.0000       0.915701        24.9175 
 111   0.0000       0.932164        25.3655 
 112   0.0000       0.950927        25.8761 
 113   0.0000       0.958601        26.0849 
 114   0.0000       0.967274        26.3209 
 115   0.0000       0.967274        26.3209 
 116   0.0000       0.972952        26.4754 
 117   0.0000       0.986489        26.8437 
 118   0.0000       1.037740        28.2383 
 119   0.0000       1.037740        28.2383 
 120   0.0000       1.063094        28.9282 
 121   0.0000       1.086108        29.5545 
 122   0.0000       1.086109        29.5545 
 123   0.0000       1.089647        29.6508 
 124   0.0000       1.099940        29.9309 
 125   0.0000       1.105410        30.0797 
 126   0.0000       1.132962        30.8295 
 127   0.0000       1.132963        30.8295 
 128   0.0000       1.144328        31.1387 
 129   0.0000       1.148179        31.2435 
 130   0.0000       1.148180        31.2436 
 131   0.0000       1.193123        32.4665 
 132   0.0000       1.194081        32.4926 
 133   0.0000       1.206634        32.8342 
 134   0.0000       1.206634        32.8342 
 135   0.0000       1.207608        32.8607 
 136   0.0000       1.217958        33.1423 
 137   0.0000       1.277018        34.7494 
 138   0.0000       1.277019        34.7495 
 139   0.0000       1.294790        35.2330 
 140   0.0000       1.295661        35.2567 
 141   0.0000       1.295662        35.2567 
 142   0.0000       1.302111        35.4322 
 143   0.0000       1.326652        36.1000 
 144   0.0000       1.383331        37.6424 
 145   0.0000       1.384317        37.6692 
 146   0.0000       1.409660        38.3588 
 147   0.0000       1.409662        38.3588 
 148   0.0000       1.438386        39.1405 
 149   0.0000       1.438386        39.1405 
 150   0.0000       1.443377        39.2763 
 151   0.0000       1.460908        39.7533 
 152   0.0000       1.524555        41.4852 
 153   0.0000       1.541523        41.9470 
 154   0.0000       1.541524        41.9470 
 155   0.0000       1.541903        41.9573 
 156   0.0000       1.566283        42.6207 
 157   0.0000       1.590126        43.2695 
 158   0.0000       1.600688        43.5569 
 159   0.0000       1.639161        44.6038 
 160   0.0000       1.639161        44.6038 
 161   0.0000       1.664176        45.2845 
 162   0.0000       1.677291        45.6414 
 163   0.0000       1.678377        45.6710 
 164   0.0000       1.678377        45.6710 
 165   0.0000       1.711723        46.5784 
 166   0.0000       1.712170        46.5905 
 167   0.0000       1.712171        46.5905 
 168   0.0000       1.743723        47.4491 
 169   0.0000       1.868617        50.8477 
 170   0.0000       1.868618        50.8477 
 171   0.0000       1.869942        50.8837 
 172   0.0000       1.894386        51.5489 
 173   0.0000       1.899563        51.6897 
 174   0.0000       1.899564        51.6898 
 175   0.0000       1.907687        51.9108 
 176   0.0000       1.951926        53.1146 
 177   0.0000       2.030377        55.2494 
 178   0.0000       2.030378        55.2494 
 179   0.0000       2.108473        57.3745 
 180   0.0000       2.128465        57.9185 
 181   0.0000       2.237339        60.8811 
 182   0.0000       2.237339        60.8811 
 183   0.0000       2.239544        60.9411 
 184   0.0000       2.258123        61.4467 
 185   0.0000       2.263578        61.5951 
 186   0.0000       2.263579        61.5951 
 187   0.0000       2.291933        62.3667 
 188   0.0000       2.323096        63.2147 
 189   0.0000       2.323097        63.2147 
 190   0.0000       2.323896        63.2364 
 191   0.0000       2.339020        63.6480 
 192   0.0000       2.392610        65.1062 
 193   0.0000       2.396223        65.2045 
 194   0.0000       2.396223        65.2046 
 195   0.0000       2.405112        65.4464 
 196   0.0000       2.410227        65.5856 
 197   0.0000       2.429644        66.1140 
 198   0.0000       2.429644        66.1140 
 199   0.0000       2.448498        66.6270 
 200   0.0000       2.479153        67.4612 
 201   0.0000       2.510736        68.3206 
 202   0.0000       2.510736        68.3206 
 203   0.0000       2.514037        68.4104 
 204   0.0000       2.576742        70.1167 
 205   0.0000       2.603697        70.8502 
 206   0.0000       2.624842        71.4256 
 207   0.0000       2.624843        71.4256 
 208   0.0000       2.652420        72.1760 
 209   0.0000       2.684708        73.0546 
 210   0.0000       2.684708        73.0546 
 211   0.0000       2.689501        73.1850 
 212   0.0000       2.742439        74.6256 
 213   0.0000       2.743503        74.6545 
 214   0.0000       2.752834        74.9084 
 215   0.0000       2.757952        75.0477 
 216   0.0000       2.757953        75.0477 
 217   0.0000       2.774583        75.5002 
 218   0.0000       2.796518        76.0971 
 219   0.0000       2.840017        77.2808 
 220   0.0000       2.840017        77.2808 
 221   0.0000       2.905577        79.0648 
 222   0.0000       2.915032        79.3221 
 223   0.0000       2.915032        79.3221 
 224   0.0000       2.930932        79.7547 
 225   0.0000       2.945125        80.1409 
 226   0.0000       2.985311        81.2344 
 227   0.0000       2.985311        81.2345 
 228   0.0000       3.052452        83.0614 
 229   0.0000       3.071137        83.5699 
 230   0.0000       3.071138        83.5699 
 231   0.0000       3.100730        84.3751 
 232   0.0000       3.699066       100.6567 
 233   0.0000       3.726861       101.4130 
 234   0.0000       3.726861       101.4131 
 235   0.0000       3.749457       102.0279 
 236   0.0000       3.863670       105.1358 
 237   0.0000       3.935224       107.0829 
 238   0.0000       3.935224       107.0829 
 239   0.0000       3.975345       108.1746 
 240   0.0000       3.987221       108.4978 
 241   0.0000       3.987221       108.4978 
 242   0.0000       3.994426       108.6938 
 243   0.0000       4.017828       109.3306 
 244   0.0000       4.085568       111.1740 
 245   0.0000       4.085568       111.1740 
 246   0.0000       4.104646       111.6931 
 247   0.0000       4.114335       111.9567 
 248   0.0000       4.117557       112.0444 
 249   0.0000       4.117557       112.0444 
 250   0.0000       4.143918       112.7617 
 251   0.0000       4.148514       112.8868 
 252   0.0000       4.160226       113.2055 
 253   0.0000       4.197249       114.2130 
 254   0.0000       4.197249       114.2130 
 255   0.0000       4.254048       115.7585 
 256   0.0000       4.271396       116.2306 
 257   0.0000       4.307752       117.2199 
 258   0.0000       4.344800       118.2280 
 259   0.0000       4.344800       118.2280 
 260   0.0000       4.359334       118.6235 
 261   0.0000       4.388169       119.4081 
 262   0.0000       4.388169       119.4081 
 263   0.0000       4.395872       119.6178 
 264   0.0000       4.417433       120.2045 
 265   0.0000       4.435703       120.7016 
 266   0.0000       4.435703       120.7016 
 267   0.0000       4.448336       121.0454 
 268   0.0000       4.507914       122.6666 
 269   0.0000       4.517802       122.9356 
 270   0.0000       4.541886       123.5910 
 271   0.0000       4.541886       123.5910 
 272   0.0000       4.555757       123.9684 
 273   0.0000       4.561933       124.1365 
 274   0.0000       4.561933       124.1365 
 275   0.0000       4.595607       125.0528 
 276   0.0000       4.705801       128.0514 
 277   0.0000       4.705801       128.0514 
 278   0.0000       4.757574       129.4602 
 279   0.0000       4.786542       130.2484 
 280   0.0000       4.844682       131.8305 
 281   0.0000       4.876519       132.6968 
 282   0.0000       4.883998       132.9003 
 283   0.0000       4.883999       132.9004 
 284   0.0000       4.965175       135.1093 
 285   0.0000       4.972266       135.3022 
 286   0.0000       4.996196       135.9534 
 287   0.0000       4.996196       135.9534 
 288   0.0000       5.101274       138.8127 
 289   0.0000       5.102764       138.8533 
 290   0.0000       5.108579       139.0115 
 291   0.0000       5.108579       139.0115 
 292   0.0000       5.151966       140.1921 
 293   0.0000       5.151966       140.1921 
 294   0.0000       5.176010       140.8464 
 295   0.0000       5.177398       140.8842 
 296   0.0000       5.198407       141.4559 
 297   0.0000       5.303909       144.3267 
 298   0.0000       5.303909       144.3267 
 299   0.0000       5.359906       145.8505 
 300   0.0000       5.370023       146.1257 
 301   0.0000       5.484222       149.2333 
 302   0.0000       5.484222       149.2333 
 303   0.0000       5.547414       150.9528 
 304   0.0000       5.632535       153.2691 
 305   0.0000       5.632536       153.2691 
 306   0.0000       5.676659       154.4697 
 307   0.0000       5.677967       154.5053 
 308   0.0000       6.145276       167.2215 
 309   0.0000       6.158013       167.5681 
 310   0.0000       6.161122       167.6527 
 311   0.0000       6.161123       167.6527 
 312   0.0000       6.294865       171.2920 
 313   0.0000       6.330745       172.2683 
 314   0.0000       6.330746       172.2683 
 315   0.0000       6.358791       173.0315 
 316   0.0000       6.600632       179.6123 
 317   0.0000       6.639681       180.6749 
 318   0.0000       6.640579       180.6993 
 319   0.0000       6.640579       180.6993 
 320   0.0000       6.719978       182.8599 
 321   0.0000       6.755916       183.8378 
 322   0.0000       6.755916       183.8378 
 323   0.0000       6.768099       184.1693 
 324   0.0000       6.921776       188.3511 
 325   0.0000       6.955441       189.2672 
 326   0.0000       6.955441       189.2672 
 327   0.0000       6.963014       189.4732 
 328   0.0000       7.007728       190.6900 
 329   0.0000       7.040011       191.5684 
 330   0.0000       7.080317       192.6652 
 331   0.0000       7.080317       192.6652 
 332   0.0000       7.127033       193.9364 
 333   0.0000       7.138351       194.2444 
 334   0.0000       7.149713       194.5536 
 335   0.0000       7.149713       194.5536 
 336   0.0000       7.162930       194.9132 
 337   0.0000       7.180693       195.3966 
 338   0.0000       7.182216       195.4380 
 339   0.0000       7.182216       195.4380 
 340   0.0000       7.233886       196.8440 
 341   0.0000       7.236272       196.9090 
 342   0.0000       7.236272       196.9090 
 343   0.0000       7.255420       197.4300 
 344   0.0000       7.302719       198.7171 
 345   0.0000       7.308734       198.8808 
 346   0.0000       7.308734       198.8808 
 347   0.0000       7.386763       201.0040 
 348   0.0000       7.547733       205.3843 
 349   0.0000       7.620042       207.3519 
 350   0.0000       7.672876       208.7896 
 351   0.0000       7.672876       208.7896 
 352   0.0000       7.751869       210.9391 
 353   0.0000       7.756561       211.0668 
 354   0.0000       7.756561       211.0668 
 355   0.0000       7.782322       211.7677 
 356   0.0000       7.817019       212.7119 
 357   0.0000       7.846324       213.5093 
 358   0.0000       7.846324       213.5093 
 359   0.0000       7.960630       216.6197 
 360   0.0000       8.693989       236.5755 
 361   0.0000       8.711755       237.0589 
 362   0.0000       8.711755       237.0589 
 363   0.0000       8.771869       238.6947 
 364   0.0000      15.792200       429.7276 
 365   0.0000      16.740786       455.5399 
 366   0.0000      16.740786       455.5399 
 367   0.0000      17.316077       471.1944 

                    ********************************
                    * MULLIKEN POPULATION ANALYSIS *
                    ********************************

-----------------------
MULLIKEN ATOMIC CHARGES
-----------------------
   0 O :   -0.445963
   1 H :    0.297063
   2 H :    0.148901
   3 O :   -0.445967
   4 H :    0.297064
   5 H :    0.148902
   6 O :   -0.445965
   7 H :    0.297065
   8 H :    0.148901
   9 O :   -0.445967
  10 H :    0.297066
  11 H :    0.148901
Sum of atomic charges:    0.0000000

--------------------------------
MULLIKEN REDUCED ORBITAL CHARGES
--------------------------------
  0 O s       :     3.894787  s :     3.894787
      pz      :     1.499881  p :     4.539020
      px      :     1.361580
      py      :     1.677560
      dz2     :     0.002092  d :     0.012033
      dxz     :     0.000836
      dyz     :     0.002670
      dx2y2   :     0.004791
      dxy     :     0.001644
      f0      :     0.000023  f :     0.000123
      f+1     :    -0.000076
      f-1     :     0.000163
      f+2     :     0.000099
      f-2     :     0.000045
      f+3     :    -0.000021
      f-3     :    -0.000111
  1 H s       :     0.586799  s :     0.586799
      pz      :     0.037377  p :     0.073414
      px      :    -0.009312
      py      :     0.045349
      dz2     :     0.001438  d :     0.042723
      dxz     :     0.015301
      dyz     :    -0.000003
      dx2y2   :     0.004879
      dxy     :     0.021109
  2 H s       :     0.721901  s :     0.721901
      pz      :     0.030096  p :     0.112041
      px      :     0.034498
      py      :     0.047447
      dz2     :     0.006774  d :     0.017157
      dxz     :     0.002060
      dyz     :     0.002679
      dx2y2   :     0.003704
      dxy     :     0.001940
  3 O s       :     3.894792  s :     3.894792
      pz      :     1.499881  p :     4.539019
      px      :     1.677559
      py      :     1.361579
      dz2     :     0.002092  d :     0.012033
      dxz     :     0.002670
      dyz     :     0.000836
      dx2y2   :     0.004791
      dxy     :     0.001644
      f0      :     0.000023  f :     0.000123
      f+1     :     0.000163
      f-1     :    -0.000076
      f+2     :     0.000099
      f-2     :     0.000045
      f+3     :    -0.000111
      f-3     :    -0.000021
  4 H s       :     0.586798  s :     0.586798
      pz      :     0.037377  p :     0.073414
      px      :     0.045350
      py      :    -0.009313
      dz2     :     0.001438  d :     0.042723
      dxz     :    -0.000003
      dyz     :     0.015301
      dx2y2   :     0.004879
      dxy     :     0.021109
  5 H s       :     0.721900  s :     0.721900
      pz      :     0.030096  p :     0.112040
      px      :     0.047447
      py      :     0.034498
      dz2     :     0.006774  d :     0.017157
      dxz     :     0.002679
      dyz     :     0.002060
      dx2y2   :     0.003704
      dxy     :     0.001940
  6 O s       :     3.894790  s :     3.894790
      pz      :     1.499880  p :     4.539019
      px      :     1.361578
      py      :     1.677560
      dz2     :     0.002092  d :     0.012033
      dxz     :     0.000836
      dyz     :     0.002670
      dx2y2   :     0.004791
      dxy     :     0.001644
      f0      :     0.000023  f :     0.000123
      f+1     :    -0.000076
      f-1     :     0.000163
      f+2     :     0.000099
      f-2     :     0.000045
      f+3     :    -0.000021
      f-3     :    -0.000111
  7 H s       :     0.586798  s :     0.586798
      pz      :     0.037377  p :     0.073414
      px      :    -0.009313
      py      :     0.045350
      dz2     :     0.001438  d :     0.042723
      dxz     :     0.015301
      dyz     :    -0.000003
      dx2y2   :     0.004879
      dxy     :     0.021109
  8 H s       :     0.721901  s :     0.721901
      pz      :     0.030096  p :     0.112041
      px      :     0.034498
      py      :     0.047447
      dz2     :     0.006774  d :     0.017157
      dxz     :     0.002060
      dyz     :     0.002679
      dx2y2   :     0.003704
      dxy     :     0.001940
  9 O s       :     3.894792  s :     3.894792
      pz      :     1.499880  p :     4.539019
      px      :     1.677560
      py      :     1.361580
      dz2     :     0.002092  d :     0.012033
      dxz     :     0.002670
      dyz     :     0.000836
      dx2y2   :     0.004791
      dxy     :     0.001644
      f0      :     0.000023  f :     0.000123
      f+1     :     0.000163
      f-1     :    -0.000076
      f+2     :     0.000099
      f-2     :     0.000045
      f+3     :    -0.000111
      f-3     :    -0.000021
 10 H s       :     0.586797  s :     0.586797
      pz      :     0.037377  p :     0.073414
      px      :     0.045350
      py      :    -0.009313
      dz2     :     0.001438  d :     0.042723
      dxz     :    -0.000003
      dyz     :     0.015301
      dx2y2   :     0.004879
      dxy     :     0.021109
 11 H s       :     0.721901  s :     0.721901
      pz      :     0.030096  p :     0.112041
      px      :     0.047447
      py      :     0.034498
      dz2     :     0.006774  d :     0.017157
      dxz     :     0.002679
      dyz     :     0.002060
      dx2y2   :     0.003704
      dxy     :     0.001940


                     *******************************
                     * LOEWDIN POPULATION ANALYSIS *
                     *******************************

----------------------
LOEWDIN ATOMIC CHARGES
----------------------
   0 O :    1.116509
   1 H :   -0.658964
   2 H :   -0.457545
   3 O :    1.116510
   4 H :   -0.658965
   5 H :   -0.457544
   6 O :    1.116510
   7 H :   -0.658965
   8 H :   -0.457545
   9 O :    1.116509
  10 H :   -0.658964
  11 H :   -0.457546

-------------------------------
LOEWDIN REDUCED ORBITAL CHARGES
-------------------------------
  0 O s       :     2.951240  s :     2.951240
      pz      :     1.285627  p :     3.815942
      px      :     1.218352
      py      :     1.311964
      dz2     :     0.020241  d :     0.098255
      dxz     :     0.010147
      dyz     :     0.018318
      dx2y2   :     0.040090
      dxy     :     0.009459
      f0      :     0.000332  f :     0.018054
      f+1     :     0.003052
      f-1     :     0.004978
      f+2     :     0.001050
      f-2     :     0.002021
      f+3     :     0.004056
      f-3     :     0.002566
  1 H s       :     0.538748  s :     0.538748
      pz      :     0.139680  p :     0.619080
      px      :     0.338319
      py      :     0.141081
      dz2     :     0.049668  d :     0.501136
      dxz     :     0.154432
      dyz     :     0.001544
      dx2y2   :     0.151802
      dxy     :     0.143691
  2 H s       :     0.581025  s :     0.581025
      pz      :     0.220258  p :     0.530918
      px      :     0.136804
      py      :     0.173855
      dz2     :     0.105536  d :     0.345602
      dxz     :     0.074058
      dyz     :     0.082823
      dx2y2   :     0.047796
      dxy     :     0.035389
  3 O s       :     2.951240  s :     2.951240
      pz      :     1.285626  p :     3.815942
      px      :     1.311964
      py      :     1.218352
      dz2     :     0.020241  d :     0.098255
      dxz     :     0.018318
      dyz     :     0.010147
      dx2y2   :     0.040090
      dxy     :     0.009459
      f0      :     0.000332  f :     0.018054
      f+1     :     0.004978
      f-1     :     0.003052
      f+2     :     0.001050
      f-2     :     0.002021
      f+3     :     0.002566
      f-3     :     0.004056
  4 H s       :     0.538748  s :     0.538748
      pz      :     0.139680  p :     0.619081
      px      :     0.141082
      py      :     0.338319
      dz2     :     0.049668  d :     0.501136
      dxz     :     0.001544
      dyz     :     0.154432
      dx2y2   :     0.151802
      dxy     :     0.143691
  5 H s       :     0.581025  s :     0.581025
      pz      :     0.220258  p :     0.530917
      px      :     0.173855
      py      :     0.136804
      dz2     :     0.105536  d :     0.345602
      dxz     :     0.082822
      dyz     :     0.074058
      dx2y2   :     0.047797
      dxy     :     0.035389
  6 O s       :     2.951239  s :     2.951239
      pz      :     1.285626  p :     3.815942
      px      :     1.218352
      py      :     1.311964
      dz2     :     0.020241  d :     0.098255
      dxz     :     0.010147
      dyz     :     0.018318
      dx2y2   :     0.040090
      dxy     :     0.009459
      f0      :     0.000332  f :     0.018054
      f+1     :     0.003052
      f-1     :     0.004978
      f+2     :     0.001050
      f-2     :     0.002021
      f+3     :     0.004056
      f-3     :     0.002566
  7 H s       :     0.538748  s :     0.538748
      pz      :     0.139680  p :     0.619081
      px      :     0.338319
      py      :     0.141082
      dz2     :     0.049668  d :     0.501136
      dxz     :     0.154432
      dyz     :     0.001544
      dx2y2   :     0.151802
      dxy     :     0.143691
  8 H s       :     0.581025  s :     0.581025
      pz      :     0.220258  p :     0.530918
      px      :     0.136804
      py      :     0.173855
      dz2     :     0.105536  d :     0.345602
      dxz     :     0.074058
      dyz     :     0.082823
      dx2y2   :     0.047796
      dxy     :     0.035389
  9 O s       :     2.951240  s :     2.951240
      pz      :     1.285627  p :     3.815942
      px      :     1.311964
      py      :     1.218352
      dz2     :     0.020241  d :     0.098255
      dxz     :     0.018318
      dyz     :     0.010147
      dx2y2   :     0.040090
      dxy     :     0.009459
      f0      :     0.000332  f :     0.018054
      f+1     :     0.004978
      f-1     :     0.003052
      f+2     :     0.001050
      f-2     :     0.002021
      f+3     :     0.002566
      f-3     :     0.004056
 10 H s       :     0.538748  s :     0.538748
      pz      :     0.139680  p :     0.619080
      px      :     0.141081
      py      :     0.338319
      dz2     :     0.049668  d :     0.501136
      dxz     :     0.001544
      dyz     :     0.154432
      dx2y2   :     0.151802
      dxy     :     0.143691
 11 H s       :     0.581025  s :     0.581025
      pz      :     0.220259  p :     0.530918
      px      :     0.173855
      py      :     0.136805
      dz2     :     0.105536  d :     0.345603
      dxz     :     0.082823
      dyz     :     0.074058
      dx2y2   :     0.047796
      dxy     :     0.035389


                      *****************************
                      * MAYER POPULATION ANALYSIS *
                      *****************************

  NA   - Mulliken gross atomic population
  ZA   - Total nuclear charge
  QA   - Mulliken gross atomic charge
  VA   - Mayer's total valence
  BVA  - Mayer's bonded valence
  FA   - Mayer's free valence

  ATOM       NA         ZA         QA         VA         BVA        FA
  0 O      8.4460     8.0000    -0.4460     1.9241     1.9241     0.0000
  1 H      0.7029     1.0000     0.2971     0.9634     0.9634     0.0000
  2 H      0.8511     1.0000     0.1489     1.1005     1.1005     0.0000
  3 O      8.4460     8.0000    -0.4460     1.9241     1.9241     0.0000
  4 H      0.7029     1.0000     0.2971     0.9634     0.9634    -0.0000
  5 H      0.8511     1.0000     0.1489     1.1005     1.1005     0.0000
  6 O      8.4460     8.0000    -0.4460     1.9241     1.9241     0.0000
  7 H      0.7029     1.0000     0.2971     0.9634     0.9634    -0.0000
  8 H      0.8511     1.0000     0.1489     1.1005     1.1005     0.0000
  9 O      8.4460     8.0000    -0.4460     1.9241     1.9241     0.0000
 10 H      0.7029     1.0000     0.2971     0.9634     0.9634     0.0000
 11 H      0.8511     1.0000     0.1489     1.1005     1.1005    -0.0000

  Mayer bond orders larger than 0.100000
B(  0-O ,  1-H ) :   0.8666 B(  0-O ,  2-H ) :   1.0671 B(  3-O ,  4-H ) :   0.8666 
B(  3-O ,  5-H ) :   1.0671 B(  6-O ,  7-H ) :   0.8666 B(  6-O ,  8-H ) :   1.0671 
B(  9-O , 10-H ) :   0.8666 B(  9-O , 11-H ) :   1.0671 

-------
TIMINGS
-------

Total SCF time: 0 days 0 hours 0 min 5 sec 

Total time                  ....       5.905 sec
Sum of individual times     ....       5.640 sec  ( 95.5%)

Fock matrix formation       ....       4.780 sec  ( 81.0%)
  XC integration            ....       1.173 sec  ( 24.5% of F)
    Basis function eval.    ....       0.193 sec  ( 16.4% of XC)
    Density eval.           ....       0.218 sec  ( 18.6% of XC)
    XC-Functional eval.     ....       0.024 sec  (  2.1% of XC)
    XC-Potential eval.      ....       0.419 sec  ( 35.7% of XC)
Diagonalization             ....       0.213 sec  (  3.6%)
Density matrix formation    ....       0.024 sec  (  0.4%)
Population analysis         ....       0.019 sec  (  0.3%)
Initial guess               ....       0.176 sec  (  3.0%)
Orbital Transformation      ....       0.000 sec  (  0.0%)
Orbital Orthonormalization  ....       0.000 sec  (  0.0%)
DIIS solution               ....       0.114 sec  (  1.9%)
SOSCF solution              ....       0.064 sec  (  1.1%)
Grid generation             ....       0.248 sec  (  4.2%)


           ************************************************************
           *        Program running with 24 parallel MPI-processes    *
           *              working on a common directory               *
           ************************************************************

------------------------------------------------------------------------------
                                ORCA  MP2 
------------------------------------------------------------------------------

Freezing NCore=8 chemical core electrons

----------------------
RI-MP2 ENERGY+GRADIENT
----------------------
Dimension of the basis                    ...  368
Memory devoted to MP2                     ... 5000 MB   
Data format for buffers                   ... DOUBLE
Compression type for matrix containers    ... UNCOMPRESSED
Overall scaling of the MP2 energy         ...   2.700e-01
Calculating two index integrals           ... done (    0.002 sec)
Cholesky decomposition of the V-matrix    ... done
Cholesky decomposition of V**-1           ... done (    0.008 sec)

-----------------
RI-TRANSFORMATION (AUX index driven)
-----------------

Dimension of the orbital-basis         ... 368
Dimension of the aux-basis             ... 424
Transformation of internal MOs         ...    0-  19
Transformation of internal/external MOs...    0-  19 to   20- 367
Number Format for Storage              ... Double (8 Byte)
Integral mode                          ... Direct

First Phase: integral generation and transformation of MO indices
  Aux angular momentum 0               ... done (    0.009 sec)
  Aux angular momentum 1               ... done (    0.014 sec)
  Aux angular momentum 2               ... done (    0.012 sec)
  Aux angular momentum 3               ... done (    0.017 sec)
  Aux angular momentum 4               ... done (    0.021 sec)
Closing buffer VIJ ( 0.00 GB; CompressionRatio= 0.99)
Closing buffer VIA ( 0.02 GB; CompressionRatio= 1.00)
  Phase 1 completed in     0.156 sec
Second Phase: sorting and transformation of aux index

IJ-Transformation
Memory available                       ... 4985 MB 
Max. # MO pairs treated in a batch     ... 1    
# of internal orbitals                 ... 20
# batches for internal orbitals        ... 1
Closing buffer IJV ( 0.00 GB; CompressionRatio= 1.00)
(ij|v) transformation done in     0.014 sec

IA-Transformation
Memory available                       ... 4985 MB 
Max. # MO pairs treated in a batch     ... 1    
# of internal orbitals                 ... 20
# batches for internal orbitals        ... 1
Closing buffer IAV ( 0.00 GB; CompressionRatio= 1.00)
(ia|v) transformation done in     0.011 sec

  Phase 2 completed in     0.053 sec
RI-Integral transformation completed in     0.214 sec
Opening buffers                              ... done
Frozen core precalculation                   ... done

Starting loop over batches of integrals:

Operator 0  - window                       ... (  4- 19)x( 20-367)
Operator 0  - Memory available             ...  5000 MB
Operator 0  - Memory needed per MO         ...   2.3 MB
Operator 0  - Number of orbitals per batch ... 1
Operator 0  - Number of batches            ... 1

OPERATOR  0   PASS   0:  MOs     4 ...    4 +    5 ...    5 +    6 ...    6 +    7 ...    7
                            +    8 ...    8 +    9 ...    9 +   10 ...   10 +   11 ...   11
                            +   12 ...   12 +   13 ...   13 +   14 ...   14 +   15 ...   15
                            +   16 ...   16 +   17 ...   17 +   18 ...   18 +   19 ...   19
  Reading integrals       ... ok
Closing buffer GIPV ( 0.00 GB; CompressionRatio= 1.00)
Time spent in pair loops =     1.009 sec
Deleting buffer (Ka|jb)[aa] ...done

-----------------------------------------------
 RI-MP2 CORRELATION ENERGY:     -0.349882997 Eh
-----------------------------------------------


---------------------
MP2 DENSITY FORMATION
---------------------

Completing the external part of the density      ... done
Storing the unrelaxed density                    ... done

Calculating the xc-kernel                        ... done
Calculating G(D)                                 ... done
Completing the Lagrangian                        ... done
Solving the Z-vector equations                   ... 

------------------------------------------------------------------------------
                           ORCA CP-SCF CALCULATION
------------------------------------------------------------------------------

Input orbitals are from        ... 04_H2O_4.gbw
Input Perturbation             ... 04_H2O_4.pin.tmp
Wavefunction output            ... 04_H2O_4.pout.tmp
Perturbation mode              ... Real perturbation (singlet)
Solver                         ... POPLE
Max. number of iterations      ... 128
Convergence tolerance          ... 1.000e-08
Integral handling              ... Direct
Number of perturbations        ... 1
Number of operators            ... 1
Orbital ranges used for CP-SCF:
 Operator 0:  Orbitals   0... 19  to  20...367
DFT calculation                         ... on
Exchange functional (SCF)               ... B88
Exchange functional (CP-SCF)            ... B88
   X-Alpha parameter    XAlpha (SCF)    ...  0.666667
   X-Alpha parameter    XAlpha (CP-SCF) ...  0.666667
   Becke's b parameter  XBeta (SCF)     ...  0.004200
   Becke's b parameter  XBeta (CP-SCF)  ...  0.004200
Correlation functional (SCF)            ... LYP
Correlation functional (CP-SCF)         ... LYP
 LDA part of GGA corr.  LDAOpt (SCF)    ... VWN-3
 LDA part of GGA corr.  LDAOpt (CP-SCF) ... VWN-3
Hybrid DFT                              ... on
   Exchange mixing (SCF)                ...  0.530
   Exchange mixing (CP-SCF)             ...  0.530
   GGA exch. scaling(SCF)               ...  0.470
   GGA exch. scaling (CP-SCF)           ...  0.470
   GGA corr. scaling (SCF)              ...  0.730
   GGA corr. scaling (CP-SCF)           ...  0.730
Variables per vector in CP-SCF ... 6960
Number of vectors sought       ... 1
Recalculating density on grid  ... done
Calculating the xc-kernel      ... done
     CP-SCF ITERATION   0: 
     CP-SCF ITERATION   1:      0.000056514008
     CP-SCF ITERATION   2:      0.000001135884
     CP-SCF ITERATION   3:      0.000000042045
     CP-SCF ITERATION   4:      0.000000000795
done
Finalizing the relaxed density                   ... done
Transforming P to the AO basis                   ... done
Storing the relaxed density                      ... done

------------------------------------
ENERGY WEIGHTED DENSITY FINALIZATION
------------------------------------

Gathering the parts of the W-matrix              ... done
Forming the Z-density                            ... done
Transforming Z to the AO basis                   ... done
Calculating G(Z)                                 ... done
Finalizing the W-matrix                          ... done
Transforming W to the AO basis and storing       ... done
Entering the RIJONX and RIJCOSX sections
Starting the three-index derivative integrals:
Operator 0  - Memory available             ...  5000 MB
Operator 0  - Memory needed per MO         ...   2.4 MB
Operator 0  - Number of orbitals per batch ... 1
Operator 0  - Number of batches            ... 1

OPERATOR  0   PASS   0:  MOs     4 ...    4 +    5 ...    5 +    6 ...    6 +    7 ...    7
                            +    8 ...    8 +    9 ...    9 +   10 ...   10 +   11 ...   11
                            +   12 ...   12 +   13 ...   13 +   14 ...   14 +   15 ...   15
                            +   16 ...   16 +   17 ...   17 +   18 ...   18 +   19 ...   19

----------------------------------
MP2 DERIVATIVE INTEGRAL GENERATION
----------------------------------


Input Correlated Electron Density   ... 04_H2O_4.pmp2re
Input Energy Weighted Density       ... 04_H2O_4.wmp2.tmp
Input SCF Electron Density          ... 04_H2O_4.scfp

One-Electron Terms    ...
                        ... One-Electron Terms done
Prescreening matrices              ... done
Exchange-correlation gradient    ... done
Dispersion correction            ... done

                *********************************************
                * UNRELAXED MP2 DENSITY POPULATION ANALYSIS *
                *********************************************

------------------------------------------------------------------------------
                           ORCA POPULATION ANALYSIS
------------------------------------------------------------------------------
Input electron density              ... 04_H2O_4.pmp2ur
BaseName (.gbw .S,...)              ... 04_H2O_4

                    ********************************
                    * MULLIKEN POPULATION ANALYSIS *
                    ********************************

-----------------------
MULLIKEN ATOMIC CHARGES
-----------------------
   0 O :   -0.440203
   1 H :    0.293922
   2 H :    0.146282
   3 O :   -0.440207
   4 H :    0.293923
   5 H :    0.146283
   6 O :   -0.440205
   7 H :    0.293923
   8 H :    0.146282
   9 O :   -0.440207
  10 H :    0.293924
  11 H :    0.146282
Sum of atomic charges:    0.0000000

--------------------------------
MULLIKEN REDUCED ORBITAL CHARGES
--------------------------------
  0 O s       :     3.892515  s :     3.892515
      pz      :     1.494735  p :     4.523617
      px      :     1.356778
      py      :     1.672104
      dz2     :     0.004120  d :     0.022629
      dxz     :     0.003025
      dyz     :     0.004723
      dx2y2   :     0.006875
      dxy     :     0.003886
      f0      :     0.000208  f :     0.001442
      f+1     :     0.000110
      f-1     :     0.000351
      f+2     :     0.000283
      f-2     :     0.000229
      f+3     :     0.000176
      f-3     :     0.000084
  1 H s       :     0.589991  s :     0.589991
      pz      :     0.038005  p :     0.073520
      px      :    -0.010422
      py      :     0.045937
      dz2     :     0.001416  d :     0.042567
      dxz     :     0.015305
      dyz     :     0.000066
      dx2y2   :     0.004650
      dxy     :     0.021130
  2 H s       :     0.724242  s :     0.724242
      pz      :     0.029797  p :     0.112346
      px      :     0.034794
      py      :     0.047755
      dz2     :     0.006754  d :     0.017130
      dxz     :     0.002055
      dyz     :     0.002637
      dx2y2   :     0.003719
      dxy     :     0.001965
  3 O s       :     3.892520  s :     3.892520
      pz      :     1.494735  p :     4.523616
      px      :     1.672104
      py      :     1.356777
      dz2     :     0.004120  d :     0.022629
      dxz     :     0.004723
      dyz     :     0.003025
      dx2y2   :     0.006875
      dxy     :     0.003886
      f0      :     0.000208  f :     0.001442
      f+1     :     0.000351
      f-1     :     0.000110
      f+2     :     0.000283
      f-2     :     0.000229
      f+3     :     0.000084
      f-3     :     0.000176
  4 H s       :     0.589990  s :     0.589990
      pz      :     0.038005  p :     0.073520
      px      :     0.045937
      py      :    -0.010422
      dz2     :     0.001416  d :     0.042567
      dxz     :     0.000066
      dyz     :     0.015305
      dx2y2   :     0.004650
      dxy     :     0.021130
  5 H s       :     0.724241  s :     0.724241
      pz      :     0.029796  p :     0.112345
      px      :     0.047755
      py      :     0.034794
      dz2     :     0.006754  d :     0.017130
      dxz     :     0.002637
      dyz     :     0.002055
      dx2y2   :     0.003719
      dxy     :     0.001965
  6 O s       :     3.892518  s :     3.892518
      pz      :     1.494735  p :     4.523616
      px      :     1.356777
      py      :     1.672104
      dz2     :     0.004120  d :     0.022629
      dxz     :     0.003025
      dyz     :     0.004723
      dx2y2   :     0.006875
      dxy     :     0.003886
      f0      :     0.000208  f :     0.001442
      f+1     :     0.000110
      f-1     :     0.000351
      f+2     :     0.000283
      f-2     :     0.000229
      f+3     :     0.000176
      f-3     :     0.000084
  7 H s       :     0.589990  s :     0.589990
      pz      :     0.038005  p :     0.073520
      px      :    -0.010422
      py      :     0.045937
      dz2     :     0.001416  d :     0.042567
      dxz     :     0.015305
      dyz     :     0.000066
      dx2y2   :     0.004650
      dxy     :     0.021130
  8 H s       :     0.724242  s :     0.724242
      pz      :     0.029796  p :     0.112346
      px      :     0.034794
      py      :     0.047755
      dz2     :     0.006754  d :     0.017130
      dxz     :     0.002055
      dyz     :     0.002637
      dx2y2   :     0.003719
      dxy     :     0.001965
[...]
     13      -0.173006   0.031453   0.044366   0.015373   0.017842   0.037353
     14      -0.074534   0.143267   0.099888  -0.144028  -0.316595   0.111872
     15      -0.037554   0.007524   0.441316   0.406535  -0.026261  -0.193774
     16      -0.258553   0.119443   0.266693  -0.037366  -0.342956   0.307104
     17       0.170338  -0.007659  -0.416790  -0.243711   0.154956  -0.014711
     18       0.181078  -0.027233   0.047517   0.001932   0.023884   0.009854
     19       0.180785  -0.085716  -0.049007   0.032204   0.001049  -0.003564
     20      -0.006695   0.036176   0.004587  -0.031979   0.020127  -0.006163
     21       0.174377  -0.042684   0.031946   0.015549   0.017696  -0.037408
     22       0.216961   0.020026   0.016133  -0.011442   0.079745   0.323720
     23      -0.078000   0.099931  -0.142784   0.143716   0.316826   0.110999
     24       0.266428  -0.264627   0.119125  -0.036586  -0.343938  -0.305935
     25      -0.050457   0.441243  -0.006052  -0.407534   0.025477  -0.194363
     26       0.182121  -0.415067   0.006105   0.244641  -0.154836  -0.013839
     27      -0.182647   0.047477  -0.086088   0.032009   0.000899   0.003621
     28       0.180870   0.048245   0.027176  -0.001913  -0.023872   0.009865
     29      -0.007286   0.004485  -0.036197   0.031991  -0.020180  -0.006116
     30      -0.215943  -0.018088   0.020105  -0.011457   0.078363  -0.323378
     31       0.174830   0.032569   0.042715  -0.015496  -0.017847  -0.037353
     32      -0.074184  -0.143785  -0.099360  -0.143570  -0.315816   0.111083
     33       0.052388   0.006074   0.439561  -0.407717   0.026662   0.193511
     34       0.265113   0.120764   0.263974   0.036633   0.342214  -0.305927
     35       0.183587   0.007424   0.413921  -0.244602   0.154938  -0.014411
                 18         19         20         21         22         23    
      0      -0.031316   0.014558   0.010279   0.021704  -0.000155  -0.020867
      1      -0.016062  -0.014968   0.021143  -0.008915   0.014884   0.008093
      2      -0.002829  -0.031543   0.024194   0.006586   0.019049   0.004254
      3      -0.006018  -0.005784   0.068705  -0.037869   0.080575   0.053735
      4      -0.236510   0.076507  -0.302984   0.360551  -0.439771  -0.414626
      5       0.368663   0.098116  -0.343387   0.164389  -0.341932  -0.232929
      6       0.463896   0.030449  -0.103581  -0.057746   0.015844   0.105708
      7       0.235113   0.120753  -0.148226  -0.125101  -0.045274   0.096346
      8      -0.048118   0.053796  -0.040621  -0.037587  -0.029401   0.006275
      9       0.014929  -0.016057  -0.021120   0.014893   0.008900   0.008086
     10       0.014548   0.031267   0.010291   0.000150   0.021695   0.020866
     11      -0.031567   0.002819   0.024192  -0.019062   0.006599  -0.004250
     12      -0.076691  -0.235564   0.302919  -0.439986  -0.360459  -0.414560
     13      -0.005821   0.006098   0.068699  -0.080621  -0.037863  -0.053724
     14       0.098064  -0.367871  -0.343277   0.342145   0.164286   0.232864
     15      -0.120827   0.234507   0.148140  -0.045315   0.125146   0.096359
     16       0.030296  -0.462541  -0.103561  -0.015789  -0.057800  -0.105708
     17       0.053858   0.047911  -0.040552   0.029397  -0.037595  -0.006287
     18      -0.031286   0.014523  -0.010261   0.021710  -0.000154   0.020871
     19      -0.016019  -0.014989  -0.021150  -0.008891   0.014889  -0.008089
     20       0.002859   0.031533   0.024182  -0.006610  -0.019062   0.004252
     21      -0.006101  -0.005971  -0.068713  -0.037820   0.080596  -0.053710
     22      -0.235604   0.077411   0.303178   0.360330  -0.439875   0.414510
     23      -0.367668  -0.098271  -0.343435  -0.164169   0.342019  -0.232880
     24       0.462368   0.029987   0.103540  -0.057832   0.015851  -0.105664
     25       0.235117   0.120281   0.148112  -0.125197  -0.045284  -0.096316
     26       0.047487  -0.053688  -0.040589   0.037609   0.029403   0.006278
     27       0.014975  -0.015946   0.021136   0.014873   0.008905  -0.008094
     28       0.014573   0.031406  -0.010284   0.000156   0.021712  -0.020865
     29       0.031522  -0.002841   0.024210   0.019052  -0.006598  -0.004250
     30      -0.077203  -0.236530  -0.303340  -0.439666  -0.360456   0.414572
     31      -0.005881   0.006096  -0.068772  -0.080558  -0.037840   0.053726
     32      -0.098381   0.368617  -0.343599  -0.341847  -0.164230   0.232869
     33      -0.120429   0.235290  -0.148201  -0.045261   0.125218  -0.096363
     34       0.030270  -0.463863   0.103551  -0.015856  -0.057817   0.105700
     35      -0.053687  -0.048109  -0.040600  -0.029392   0.037625  -0.006287
                 24         25         26         27         28         29    
      0      -0.017688  -0.007482   0.020676   0.012094   0.030238  -0.036263
      1      -0.018872  -0.012751   0.025803   0.021730   0.005126  -0.007505
      2       0.023976   0.008483  -0.028907  -0.018811  -0.001320   0.001906
      3      -0.022994  -0.012787   0.040579   0.039620  -0.489280   0.605578
      4       0.219903   0.133151  -0.303813  -0.260780  -0.074935   0.085346
      5      -0.320280  -0.151023   0.410396   0.295769  -0.019374   0.029304
      6       0.290639   0.155643  -0.379633  -0.282362   0.027481  -0.038397
      7       0.095104   0.058320  -0.129853  -0.097179  -0.031401   0.040696
      8      -0.060269  -0.026197   0.074488   0.052941   0.043753  -0.060458
      9       0.018873   0.025800   0.012742   0.021734   0.005124   0.003859
     10      -0.017696  -0.020675  -0.007474  -0.012094  -0.030240  -0.020452
     11       0.023983   0.028905   0.008472   0.018815   0.001320   0.000187
     12      -0.219955  -0.303769  -0.133047  -0.260823  -0.074939  -0.044730
     13      -0.022999  -0.040577  -0.012777  -0.039623   0.489299   0.336762
     14      -0.320350  -0.410343  -0.150872  -0.295826   0.019376   0.016902
     15      -0.095134  -0.129843  -0.058277  -0.097196  -0.031404  -0.008133
     16       0.290720   0.379603   0.155515   0.282423  -0.027485  -0.019048
     17      -0.060286  -0.074481  -0.026172  -0.052955  -0.043759  -0.020840
     18       0.017700  -0.007478   0.020666  -0.012088  -0.030240  -0.036259
     19       0.018888  -0.012747   0.025798  -0.021724  -0.005125  -0.007507
     20       0.023991  -0.008480   0.028899  -0.018805  -0.001320  -0.001906
     21       0.023023  -0.012787   0.040567  -0.039605   0.489326   0.605531
     22      -0.220118   0.133136  -0.303736   0.260725   0.074937   0.085338
     23      -0.320522   0.150976  -0.410290   0.295706  -0.019377  -0.029303
     24      -0.290866   0.155593  -0.379521   0.282280  -0.027488  -0.038394
     25      -0.095186   0.058301  -0.129817   0.097146   0.031410   0.040698
     26      -0.060299   0.026181  -0.074444   0.052914   0.043769   0.060462
     27      -0.018869   0.025799   0.012758  -0.021731  -0.005124   0.003859
     28       0.017694  -0.020670  -0.007487   0.012091   0.030237  -0.020454
     29       0.023980  -0.028903  -0.008491   0.018813   0.001320  -0.000187
     30       0.219923  -0.303758  -0.133225   0.260786   0.074933  -0.044736
     31       0.023000  -0.040571  -0.012793   0.039614  -0.489276   0.336788
     32      -0.320312   0.410333   0.151122  -0.295789   0.019380  -0.016900
     33       0.095114  -0.129824  -0.058355   0.097162   0.031404  -0.008132
     34      -0.290657   0.379573   0.155730  -0.282371   0.027483  -0.019049
     35      -0.060275   0.074479   0.026211  -0.052954  -0.043757   0.020841
                 30         31         32         33         34         35    
      0      -0.020452   0.029122   0.013918   0.020220  -0.000185  -0.014490
      1      -0.003861   0.005677  -0.014950  -0.021245  -0.000956   0.015448
      2       0.000187  -0.000910   0.023490   0.033412   0.001168  -0.024074
      3       0.336764  -0.490857  -0.044489  -0.069940   0.013050   0.048998
      4       0.044731  -0.064730  -0.014729  -0.022275   0.000646   0.015724
      5       0.016902  -0.027323   0.011290   0.014073   0.003083  -0.009473
      6      -0.019045   0.031284  -0.175237  -0.249024  -0.010055   0.179535
      7       0.008131  -0.022656   0.253412   0.359585   0.012571  -0.258623
      8      -0.020835   0.041771  -0.384114  -0.545555  -0.020047   0.392436
      9      -0.007506  -0.005679   0.015071  -0.000835   0.021426   0.015082
     10       0.036263   0.029122   0.014027   0.000299   0.020390   0.014138
     11      -0.001906  -0.000910   0.023681  -0.000977   0.033692   0.023498
     12       0.085346   0.064732   0.014851   0.000768   0.022463   0.015332
     13      -0.605568  -0.490850  -0.044795  -0.013430  -0.070544  -0.047743
     14      -0.029305  -0.027323   0.011392  -0.002996   0.014163   0.009244
     15       0.040695   0.022656  -0.255465   0.010517  -0.362587  -0.252426
     16       0.038395   0.031280  -0.176666   0.008634  -0.251114  -0.175245
     17       0.060455   0.041769  -0.387237   0.016930  -0.550116  -0.383033
     18      -0.020454  -0.029122  -0.014249   0.020314   0.000141   0.014027
     19      -0.003858  -0.005679   0.015297  -0.021345  -0.001304  -0.014939
     20      -0.000187  -0.000910   0.024035  -0.033564  -0.001711  -0.023280
     21       0.336789   0.490851   0.045685  -0.070315   0.011957  -0.047652
     22       0.044732   0.064731   0.015098  -0.022384   0.000294  -0.015223
     23      -0.016902  -0.027323   0.011511  -0.014096  -0.003305  -0.009088
     24      -0.019051  -0.031282   0.179278  -0.250132  -0.014106  -0.173577
     25       0.008133   0.022658  -0.259276   0.361199   0.018413   0.250080
     26       0.020839   0.041770  -0.393007   0.548006   0.028909   0.379450
     27      -0.007507   0.005678  -0.014990  -0.001430   0.021166  -0.015482
     28       0.036262  -0.029124  -0.013968  -0.000258   0.020146  -0.014543
     29       0.001905  -0.000910   0.023558   0.001909  -0.033287   0.024135
     30       0.085340  -0.064737  -0.014792   0.000169   0.022195  -0.015786
     31      -0.605542   0.490890   0.044790  -0.011577  -0.069700   0.049423
     32       0.029308  -0.027325   0.011299   0.003396  -0.014013   0.009456
     33       0.040690  -0.022655   0.254144   0.020542  -0.358228   0.259274
     34       0.038391  -0.031278   0.175729   0.015581  -0.248086   0.179955
     35      -0.060447   0.041766  -0.385217  -0.032133   0.543503  -0.393402


-----------
IR SPECTRUM  
-----------

 Mode    freq (cm**-1)   T**2         TX         TY         TZ
-------------------------------------------------------------------
   6:        56.59    0.000145  (  0.009847   0.003721   0.005887)
   7:        84.01    1.713293  ( -0.003869   0.004623   1.308914)
   8:       212.90    0.000213  ( -0.006660  -0.001698  -0.012892)
   9:       226.38   64.135195  (  0.000411  -0.024388  -8.008408)
  10:       245.17    4.572636  (  1.956105  -0.863871  -0.003875)
  11:       245.34    4.238308  (  0.845818   1.876939  -0.000950)
  12:       265.18    2.643425  (  0.160081  -0.003402   1.617958)
  13:       269.55  235.413412  ( -7.840658  13.188536  -0.002089)
  14:       269.61  235.402767  ( 13.183441   7.848520  -0.019735)
  15:       304.76    0.000329  ( -0.004817  -0.017066   0.003822)
  16:       422.39    0.000178  ( -0.004054  -0.009783   0.008114)
  17:       451.77   17.161408  ( -0.004676   0.006076   4.142626)
  18:       465.63   43.623393  (  6.602971  -0.155452   0.001889)
  19:       465.68   43.649054  ( -0.162763  -6.604736   0.005451)
  20:       758.72  172.564558  ( -0.005582  -0.000987 -13.136382)
  21:       829.94  173.090876  (-13.136275   0.727412   0.004662)
  22:       829.94  173.107120  ( -0.726646 -13.136937   0.001473)
  23:       996.05    0.000003  (  0.001183  -0.001020  -0.000862)
  24:      1649.09   85.613951  ( -0.001104  -0.001553  -9.252781)
  25:      1663.86   51.758931  ( -4.267904   5.791712  -0.000421)
  26:      1663.86   51.755404  ( -5.791369  -4.267955   0.002725)
  27:      1692.67    0.000002  ( -0.000734  -0.000434  -0.001251)
  28:      3362.97    0.000002  (  0.001333   0.000565  -0.000011)
  29:      3461.39  1467.699941  ( 33.302509  18.937868   0.000055)
  30:      3461.40  1467.707973  ( 18.937985 -33.302563  -0.000067)
  31:      3503.62   28.140085  ( -0.000091   0.001221  -5.304723)
  32:      3881.74   97.972988  (  0.068005  -0.049119  -9.897775)
  33:      3882.57  101.164805  ( -9.068844   4.349051  -0.081399)
  34:      3882.58  101.166550  ( -4.348688  -9.069468   0.014310)
  35:      3883.30    0.024112  (  0.147018   0.040703  -0.028992)

The first frequency considered to be a vibration is 6
The total number of vibrations considered is 30


--------------------------
THERMOCHEMISTRY AT 298.15K
--------------------------

Temperature         ... 298.15 K
Pressure            ... 1.00 atm
Total Mass          ... 72.06 AMU

Throughout the following assumptions are being made:
  (1) The electronic state is orbitally nondegenerate
  (2) There are no thermally accessible electronically excited states
  (3) Hindered rotations indicated by low frequency modes are not
      treated as such but are treated as vibrations and this may
      cause some error
  (4) All equations used are the standard statistical mechanics
      equations for an ideal gas
  (5) All vibrations are strictly harmonic

freq.      56.59  E(vib)   ...       0.52 
freq.      84.01  E(vib)   ...       0.48 
freq.     212.90  E(vib)   ...       0.34 
freq.     226.38  E(vib)   ...       0.33 
freq.     245.17  E(vib)   ...       0.31 
freq.     245.34  E(vib)   ...       0.31 
freq.     265.18  E(vib)   ...       0.29 
freq.     269.55  E(vib)   ...       0.29 
freq.     269.61  E(vib)   ...       0.29 
freq.     304.76  E(vib)   ...       0.26 
freq.     422.39  E(vib)   ...       0.18 
freq.     451.77  E(vib)   ...       0.16 
freq.     465.63  E(vib)   ...       0.16 
freq.     465.68  E(vib)   ...       0.16 
freq.     758.72  E(vib)   ...       0.06 
freq.     829.94  E(vib)   ...       0.04 
freq.     829.94  E(vib)   ...       0.04 
freq.     996.05  E(vib)   ...       0.02 
freq.    1649.09  E(vib)   ...       0.00 
freq.    1663.86  E(vib)   ...       0.00 
freq.    1663.86  E(vib)   ...       0.00 
freq.    1692.67  E(vib)   ...       0.00 
freq.    3362.97  E(vib)   ...       0.00 
freq.    3461.39  E(vib)   ...       0.00 
freq.    3461.40  E(vib)   ...       0.00 
freq.    3503.62  E(vib)   ...       0.00 
freq.    3881.74  E(vib)   ...       0.00 
freq.    3882.57  E(vib)   ...       0.00 
freq.    3882.58  E(vib)   ...       0.00 
freq.    3883.30  E(vib)   ...       0.00 

------------
INNER ENERGY
------------

The inner energy is: U= E(el) + E(ZPE) + E(vib) + E(rot) + E(trans)
    E(el)   - is the total energy from the electronic structure calculation
              = E(kin-el) + E(nuc-el) + E(el-el) + E(nuc-nuc)
    E(ZPE)  - the the zero temperature vibrational energy from the frequency calculation
    E(vib)  - the the finite temperature correction to E(ZPE) due to population
              of excited vibrational states
    E(rot)  - is the rotational thermal energy
    E(trans)- is the translational thermal energy

Summary of contributions to the inner energy U:
Electronic energy                ...   -305.70511272 Eh
Zero point energy                ...      0.09884661 Eh      62.03 kcal/mol
Thermal vibrational correction   ...      0.00676457 Eh       4.24 kcal/mol
Thermal rotational correction    ...      0.00141627 Eh       0.89 kcal/mol
Thermal translational correction ...      0.00141627 Eh       0.89 kcal/mol
-----------------------------------------------------------------------
Total thermal energy                   -305.59666900 Eh


Summary of corrections to the electronic energy:
(perhaps to be used in another calculation)
Total thermal correction                  0.00959711 Eh       6.02 kcal/mol
Non-thermal (ZPE) correction              0.09884661 Eh      62.03 kcal/mol
-----------------------------------------------------------------------
Total correction                          0.10844372 Eh      68.05 kcal/mol


--------
ENTHALPY
--------

The enthalpy is H = U + kB*T
                kB is Boltzmann's constant
Total free energy                 ...   -305.59666900 Eh 
Thermal Enthalpy correction       ...      0.00094421 Eh       0.59 kcal/mol
-----------------------------------------------------------------------
Total Enthalpy                    ...   -305.59572479 Eh


Note: Only C1 symmetry has been detected, increase convergence thresholds 
      if your molecule has a higher symmetry. Symmetry factor of 1.0 is   
      used for the rotational entropy correction. 
 

Note: Rotational entropy computed according to Herzberg 
Infrared and Raman Spectra, Chapter V,1, Van Nostrand Reinhold, 1945 
Point Group:  C1, Symmetry Number:   1  
Rotational constants in cm-1:     0.121061     0.121060     0.061604 

Vibrational entropy computed according to the QRRHO of S. Grimme
Chem.Eur.J. 2012 18 9955


-------
ENTROPY
-------

The entropy contributions are T*S = T*(S(el)+S(vib)+S(rot)+S(trans))
     S(el)   - electronic entropy
     S(vib)  - vibrational entropy
     S(rot)  - rotational entropy
     S(trans)- translational entropy
The entropies will be listed as mutliplied by the temperature to get
units of energy

Electronic entropy                ...      0.00000000 Eh      0.00 kcal/mol
Vibrational entropy               ...      0.01160840 Eh      7.28 kcal/mol
Rotational entropy                ...      0.01282015 Eh      8.04 kcal/mol
Translational entropy             ...      0.01840717 Eh     11.55 kcal/mol
-----------------------------------------------------------------------
Final entropy term                ...      0.04283572 Eh     26.88 kcal/mol

In case the symmetry of your molecule has not been determined correctly
or in case you have a reason to use a different symmetry number we print 
out the resulting rotational entropy values for sn=1,12 :
 --------------------------------------------------------
|  sn= 1 | S(rot)=       0.01282015 Eh      8.04 kcal/mol|
|  sn= 2 | S(rot)=       0.01216569 Eh      7.63 kcal/mol|
|  sn= 3 | S(rot)=       0.01178286 Eh      7.39 kcal/mol|
|  sn= 4 | S(rot)=       0.01151123 Eh      7.22 kcal/mol|
|  sn= 5 | S(rot)=       0.01130055 Eh      7.09 kcal/mol|
|  sn= 6 | S(rot)=       0.01112840 Eh      6.98 kcal/mol|
|  sn= 7 | S(rot)=       0.01098285 Eh      6.89 kcal/mol|
|  sn= 8 | S(rot)=       0.01085678 Eh      6.81 kcal/mol|
|  sn= 9 | S(rot)=       0.01074557 Eh      6.74 kcal/mol|
|  sn=10 | S(rot)=       0.01064609 Eh      6.68 kcal/mol|
|  sn=11 | S(rot)=       0.01055610 Eh      6.62 kcal/mol|
|  sn=12 | S(rot)=       0.01047394 Eh      6.57 kcal/mol|
 --------------------------------------------------------


-------------------
GIBBS FREE ENERGY
-------------------

The Gibbs free energy is G = H - T*S

Total enthalpy                    ...   -305.59572479 Eh 
Total entropy correction          ...     -0.04283572 Eh    -26.88 kcal/mol
-----------------------------------------------------------------------
Final Gibbs free energy         ...   -305.63856051 Eh

For completeness - the Gibbs free energy minus the electronic energy
G-E(el)                           ...      0.06655221 Eh     41.76 kcal/mol


Total Time for Numerical Frequencies  :      2206.145 sec

Timings for individual modules:

Sum of individual times         ...      222.980 sec (=   3.716 min)
GTO integral calculation        ...        4.123 sec (=   0.069 min)   1.8 %
SCF iterations                  ...       18.634 sec (=   0.311 min)   8.4 %
MP2 module                      ...      199.755 sec (=   3.329 min)  89.6 %
Geometry relaxation             ...        0.467 sec (=   0.008 min)   0.2 %
                             ****ORCA TERMINATED NORMALLY****
TOTAL RUN TIME: 0 days 0 hours 39 minutes 55 seconds 194 msec
