
                                 *****************
                                 * O   R   C   A *
                                 *****************

           --- An Ab Initio, DFT and Semiempirical electronic structure package ---

                  #######################################################
                  #                        -***-                        #
                  #          Department of theory and spectroscopy      #
                  #               Directorship: Frank Neese             #
                  #        Max Planck Institute fuer Kohlenforschung    #
                  #                Kaiser Wilhelm Platz 1               #
                  #                 D-45470 Muelheim/Ruhr               #
                  #                      Germany                        #
                  #                                                     #
                  #                  All rights reserved                #
                  #                        -***-                        #
                  #######################################################


                         Program Version 4.2.0 -  RELEASE  -


 With contributions from (in alphabetic order):
   Daniel Aravena         : Magnetic Suceptibility
   Michael Atanasov       : Ab Initio Ligand Field Theory (pilot matlab implementation)
   Alexander A. Auer      : GIAO ZORA, VPT2
   Ute Becker             : Parallelization
   Giovanni Bistoni       : ED, misc. LED, open-shell LED, HFLED
   Martin Brehm           : Molecular dynamics
   Dmytro Bykov           : SCF Hessian
   Vijay G. Chilkuri      : MRCI spin determinant printing, contributions to CSF-ICE
   Dipayan Datta          : RHF DLPNO-CCSD density
   Achintya Kumar Dutta   : EOM-CC, STEOM-CC
   Dmitry Ganyushin       : Spin-Orbit,Spin-Spin,Magnetic field MRCI
   Miquel Garcia          : C-PCM Hessian, Gaussian charge scheme
   Yang Guo               : DLPNO-NEVPT2, CIM, IAO-localization
   Andreas Hansen         : Spin unrestricted coupled pair/coupled cluster methods
   Benjamin Helmich-Paris : CASSCF linear response (MC-RPA)
   Lee Huntington         : MR-EOM, pCC
   Robert Izsak           : Overlap fitted RIJCOSX, COSX-SCS-MP3, EOM
   Christian Kollmar      : KDIIS, OOCD, Brueckner-CCSD(T), CCSD density
   Simone Kossmann        : Meta GGA functionals, TD-DFT gradient, OOMP2, MP2 Hessian
   Martin Krupicka        : AUTO-CI
   Lucas Lang             : DCDCAS
   Dagmar Lenk            : GEPOL surface, SMD
   Dimitrios Liakos       : Extrapolation schemes; Compound Job, initial MDCI parallelization
   Dimitrios Manganas     : Further ROCIS development; embedding schemes
   Dimitrios Pantazis     : SARC Basis sets
   Taras Petrenko         : DFT Hessian,TD-DFT gradient, ASA, ECA, R-Raman, ABS, FL, XAS/XES, NRVS
   Peter Pinski           : DLPNO-MP2, DLPNO-MP2 Gradient
   Christoph Reimann      : Effective Core Potentials
   Marius Retegan         : Local ZFS, SOC
   Christoph Riplinger    : Optimizer, TS searches, QM/MM, DLPNO-CCSD(T), (RO)-DLPNO pert. Triples
   Tobias Risthaus        : Range-separated hybrids, TD-DFT gradient, RPA, STAB
   Michael Roemelt        : Original ROCIS implementation
   Masaaki Saitow         : Open-shell DLPNO-CCSD energy and density
   Barbara Sandhoefer     : DKH picture change effects
   Avijit Sen             : IP-ROCIS
   Kantharuban Sivalingam : CASSCF convergence, NEVPT2, FIC-MRCI
   Bernardo de Souza      : ESD, SOC TD-DFT
   Georgi Stoychev        : AutoAux, RI-MP2 NMR
   Willem Van den Heuvel  : Paramagnetic NMR
   Boris Wezisla          : Elementary symmetry handling
   Frank Wennmohs         : Technical directorship


 We gratefully acknowledge several colleagues who have allowed us to
 interface, adapt or use parts of their codes:
   Stefan Grimme, W. Hujo, H. Kruse,             : VdW corrections, initial TS optimization,
                  C. Bannwarth                     DFT functionals, gCP, sTDA/sTD-DF
   Ed Valeev, F. Pavosevic, A. Kumar             : LibInt (2-el integral package), F12 methods
   Garnet Chan, S. Sharma, J. Yang, R. Olivares  : DMRG
   Ulf Ekstrom                                   : XCFun DFT Library
   Mihaly Kallay                                 : mrcc  (arbitrary order and MRCC methods)
   Andreas Klamt, Michael Diedenhofen            : otool_cosmo (COSMO solvation model)
   Jiri Pittner, Ondrej Demel                    : Mk-CCSD
   Frank Weinhold                                : gennbo (NPA and NBO analysis)
   Christopher J. Cramer and Donald G. Truhlar   : smd solvation model
   Lars Goerigk                                  : TD-DFT with DH, B97 family of functionals
   V. Asgeirsson, H. Jonsson                     : NEB implementation
   FAccTs GmbH                                   : IRC, NEB, NEB-TS, Multilevel, MM, QM/MM, CI optimization
   S Lehtola, MJT Oliveira, MAL Marques          : LibXC Library


 Your calculation uses the libint2 library for the computation of 2-el integrals
 For citations please refer to: http://libint.valeyev.net

 Your ORCA version has been built with support for libXC version: 4.2.3
 For citations please refer to: https://tddft.org/programs/libxc/

 This ORCA versions uses:
   CBLAS   interface :  Fast vector & matrix operations
   LAPACKE interface :  Fast linear algebra routines
   SCALAPACK package :  Parallel linear algebra routines


Your calculation utilizes the atom-pairwise dispersion correction
with the Becke-Johnson damping scheme (D3BJ)
Cite in your paper:
S.Grimme, S.Ehrlich, L.Goerigk, J Comput Chem, (2011), 32, 1456–1465 
S.Grimme, J.Antony, S.Ehrlich and H.Krieg, J.Chem.Phys., 132, (2010), 154104 
   

----- Orbital basis set information -----
Your calculation utilizes the basis: aug-cc-pV(T+d)Z 
             Al - Ar: T.H. Dunning, Jr., K. A. Peterson and A. K. Wilson, J. Chem. Phys.
                      114, 9244 (2001)

----- AuxC basis set information -----
Your calculation utilizes the auxiliary basis: def2-TZVP/C
  H-La, Hf-Rn : A. Hellweg, C. Hattig, S. Hofener and W. Klopper, Theor. Chem. Acc. 117, 587 (2007).
        Ce-Lu : J. Chmela and M. E. Harding, Mol. Phys. (2018).

----- AuxJK basis set information -----
Your calculation utilizes the auxiliary basis: def2/JK
   H-Ba, Hf-Rn: F. Weigend, J. Comput. Chem. 29, 167 (2008).

================================================================================
                                        WARNINGS
                       Please study these warnings very carefully!
================================================================================


WARNING: The frozen-core approximation for MP2-gradient calculations is turned on by default.

WARNING: Geometry Optimization
  ===> : Switching off AutoStart
         For restart on a previous wavefunction, please use MOREAD

WARNING: The frozen-core approximation is turned on by default for 
         the MP2 part of double-hybrid DFT.

INFO   : the flag for use of LIBINT has been found!

================================================================================
                                       INPUT FILE
================================================================================
NAME = 05_H2O_5.in
|  1> #
|  2> # 05_H2O_5 b2-plyp/aug-cc-pvt(+d)z
|  3> #
|  4> ! rijk ri-b2plyp d3bj aug-cc-pvt(+d)z def2/jk def2-tzvp/c grid4 nofinalgrid opt xyzfile numfreq
|  5> 
|  6> *xyz 0 1
|  7> O	2.312927	0.150318	0.177415
|  8> O	0.864769	-2.137443	-0.15942
|  9> O	-1.781315	-1.498466	0.059758
| 10> O	-1.961951	1.234812	-0.062774
| 11> O	0.577396	2.241432	-0.075822
| 12> H	1.836849	-0.694236	0.04925
| 13> H	-0.089971	-1.943593	-0.076678
| 14> H	-1.915322	-0.530797	0.048103
| 15> H	-1.066728	1.628166	-0.074484
| 16> H	1.229463	1.522335	0.042111
| 17> H	2.825562	0.034681	0.978576
| 18> H	0.953988	-2.623745	-0.980296
| 19> H	-2.260123	-1.814802	0.826889
| 20> H	-2.472247	1.784461	0.533098
| 21> H	0.863928	2.71231	-0.859811
| 22> *
| 23> 
| 24> %maxcore 5000
| 25> 
| 26> %pal
| 27> nprocs 24
| 28> end
| 29> 
| 30> 
| 31>                          ****END OF INPUT****
================================================================================

                       *****************************
                       * Geometry Optimization Run *
                       *****************************

Geometry optimization settings:
Update method            Update   .... BFGS
Choice of coordinates    CoordSys .... Z-matrix Internals
Initial Hessian          InHess   .... Almoef's Model

Convergence Tolerances:
Energy Change            TolE     ....  5.0000e-06 Eh
Max. Gradient            TolMAXG  ....  3.0000e-04 Eh/bohr
RMS Gradient             TolRMSG  ....  1.0000e-04 Eh/bohr
Max. Displacement        TolMAXD  ....  4.0000e-03 bohr
RMS Displacement         TolRMSD  ....  2.0000e-03 bohr
Strict Convergence                ....  False
------------------------------------------------------------------------------
                        ORCA OPTIMIZATION COORDINATE SETUP
------------------------------------------------------------------------------

The optimization will be done in new redundant internal coordinates
Making redundant internal coordinates   ...  (new redundants) done
Evaluating the initial hessian          ...  (Almloef) done
Evaluating the coordinates              ...  done
Calculating the B-matrix                .... done
Calculating the G-matrix                .... done
Diagonalizing the G-matrix              .... done
The first mode is                       ....   20
The number of degrees of freedom        ....   39

    -----------------------------------------------------------------
                    Redundant Internal Coordinates


    -----------------------------------------------------------------
         Definition                    Initial Value    Approx d2E/dq
    -----------------------------------------------------------------
      1. B(H   5,O   0)                  0.9779         0.486810   
      2. B(H   5,O   1)                  1.7525         0.028285   
      3. B(H   6,O   2)                  1.7543         0.028105   
      4. B(H   6,O   1)                  0.9777         0.487172   
      5. B(H   7,O   2)                  0.9770         0.488525   
      6. B(H   7,O   3)                  1.7697         0.026555   
      7. B(H   8,O   4)                  1.7548         0.028051   
      8. B(H   8,O   3)                  0.9779         0.486865   
      9. B(H   9,O   0)                  1.7535         0.028187   
     10. B(H   9,O   4)                  0.9779         0.486946   
     11. B(H  10,O   0)                  0.9581         0.523528   
     12. B(H  11,O   1)                  0.9583         0.523266   
     13. B(H  12,O   2)                  0.9580         0.523739   
     14. B(H  13,O   3)                  0.9579         0.523976   
     15. B(H  14,O   4)                  0.9584         0.523087   
     16. A(H   9,O   0,H  10)          119.3112         0.209557   
     17. A(H   5,O   0,H   9)          111.3968         0.207590   
     18. A(H   5,O   0,H  10)          105.4158         0.318744   
     19. A(H   5,O   1,H   6)          111.6099         0.207702   
     20. A(H   5,O   1,H  11)          117.9216         0.209638   
     21. A(H   6,O   1,H  11)          105.3089         0.318757   
     22. A(H   7,O   2,H  12)          105.5483         0.318948   
     23. A(H   6,O   2,H  12)          117.4101         0.209489   
     24. A(H   6,O   2,H   7)          112.4976         0.207606   
     25. A(H   7,O   3,H  13)          123.1984         0.207964   
     26. A(H   8,O   3,H  13)          105.3267         0.318794   
     27. A(H   7,O   3,H   8)          112.2063         0.206002   
     28. A(H   9,O   4,H  14)          105.1062         0.318715   
     29. A(H   8,O   4,H  14)          116.9019         0.209403   
     30. A(H   8,O   4,H   9)          111.5732         0.207467   
     31. L(O   0,H   5,O   1,H   9, 2) 181.6716         0.207682   
     32. L(O   0,H   5,O   1,H   9, 1) 175.5995         0.207682   
     33. L(O   1,H   6,O   2,H   5, 2) 178.7819         0.207532   
     34. L(O   1,H   6,O   2,H   5, 1) 176.8415         0.207532   
     35. A(O   2,H   7,O   3)          173.0006         0.206092   
     36. L(O   3,H   8,O   4,H   7, 2) 180.5842         0.207463   
     37. L(O   3,H   8,O   4,H   7, 1) 176.7000         0.207463   
     38. L(O   0,H   9,O   4,H   8, 2) 183.5434         0.207597   
     39. L(O   0,H   9,O   4,H   8, 1) 176.1760         0.207597   
     40. D(H  11,O   1,O   0,H   9)    106.4348         0.001501   
     41. D(H   6,O   1,O   0,H   9)    -14.9279         0.001501   
     42. D(H   6,O   1,O   0,H  10)    114.8119         0.001501   
     43. D(H  11,O   1,O   0,H  10)   -123.8254         0.001501   
     44. D(H   7,O   2,O   1,H   5)     11.4802         0.001501   
     45. D(H  12,O   2,O   1,H  11)    120.8135         0.001501   
     46. D(H   7,O   2,O   1,H  11)   -116.8515         0.001501   
     47. D(H  12,O   2,O   1,H   5)   -110.8548         0.001501   
     48. D(H   9,O   4,O   3,H   7)     -3.7701         0.001501   
     49. D(H   9,O   4,O   3,H  13)    132.1214         0.001501   
     50. D(H   8,O   4,O   0,H  10)   -110.9981         0.001501   
     51. D(H   8,O   4,O   0,H   5)     11.9003         0.001501   
     52. D(H  14,O   4,O   0,H  10)    122.7980         0.001501   
     53. D(H  14,O   4,O   3,H  13)   -107.3675         0.001501   
     54. D(H  14,O   4,O   0,H   5)   -114.3036         0.001501   
     55. D(H  14,O   4,O   3,H   7)    116.7411         0.001501   
     56. D(O   2,H   7,O   3,H  13)   -152.6002         0.001881   
     57. D(O   2,H   7,O   3,H   8)    -25.1333         0.001881   
     58. D(O   3,H   7,O   2,H   6)     19.5321         0.294450   
     59. D(O   3,H   7,O   2,H  12)    148.7623         0.294450   
    -----------------------------------------------------------------

Number of atoms                         .... 15
Number of degrees of freedom            .... 59

         *************************************************************
         *                GEOMETRY OPTIMIZATION CYCLE   1            *
         *************************************************************
---------------------------------
CARTESIAN COORDINATES (ANGSTROEM)
---------------------------------
  O      2.312927    0.150318    0.177415
  O      0.864769   -2.137443   -0.159420
  O     -1.781315   -1.498466    0.059758
  O     -1.961951    1.234812   -0.062774
  O      0.577396    2.241432   -0.075822
  H      1.836849   -0.694236    0.049250
  H     -0.089971   -1.943593   -0.076678
  H     -1.915322   -0.530797    0.048103
  H     -1.066728    1.628166   -0.074484
  H      1.229463    1.522335    0.042111
  H      2.825562    0.034681    0.978576
  H      0.953988   -2.623745   -0.980296
  H     -2.260123   -1.814802    0.826889
  H     -2.472247    1.784461    0.533098
  H      0.863928    2.712310   -0.859811

----------------------------
CARTESIAN COORDINATES (A.U.)
----------------------------
  NO LB      ZA    FRAG     MASS         X           Y           Z
   0 O     8.0000    0    15.999    4.370799    0.284060    0.335266
   1 O     8.0000    0    15.999    1.634177   -4.039182   -0.301260
   2 O     8.0000    0    15.999   -3.366198   -2.831690    0.112926
   3 O     8.0000    0    15.999   -3.707550    2.333457   -0.118626
   4 O     8.0000    0    15.999    1.091120    4.235693   -0.143283
   5 H     1.0000    0     1.008    3.471142   -1.311916    0.093069
   6 H     1.0000    0     1.008   -0.170021   -3.672858   -0.144900
   7 H     1.0000    0     1.008   -3.619434   -1.003061    0.090901
   8 H     1.0000    0     1.008   -2.015824    3.076788   -0.140754
   9 H     1.0000    0     1.008    2.323348    2.876796    0.079578
  10 H     1.0000    0     1.008    5.339538    0.065538    1.849241
  11 H     1.0000    0     1.008    1.802776   -4.958159   -1.852491
  12 H     1.0000    0     1.008   -4.271013   -3.429479    1.562594
  13 H     1.0000    0     1.008   -4.671870    3.372143    1.007409
  14 H     1.0000    0     1.008    1.632587    5.125523   -1.624807

--------------------------------
INTERNAL COORDINATES (ANGSTROEM)
--------------------------------
 O      0   0   0     0.000000000000     0.00000000     0.00000000
 O      1   0   0     2.728455571071     0.00000000     0.00000000
 O      2   1   0     2.730950592242   107.94925627     0.00000000
 O      3   2   1     2.741979591610   107.06628089    13.09730221
 O      1   2   3     2.729277301984   107.06549532   344.98490806
 H      1   2   3     0.977930461856     2.93309900   181.59899752
 H      2   1   3     0.977728248883   109.97391047   359.38512925
 H      3   2   1     0.976973391979   111.32718232    11.52866055
 H      4   3   2     0.977900154998   109.94962754   354.18953913
 H      5   1   2     0.977854825824     2.96622939   156.26657087
 H      1   2   3     0.958136476143   106.61897896   115.42672130
 H      2   1   3     0.958272963482   118.80609298   120.74784289
 H      3   2   1     0.958026897807   118.11621857   249.19366164
 H      4   3   2     0.957903685764   125.39988308   227.11000997
 H      5   1   2     0.958366020907   105.20261475   244.80497783

---------------------------
INTERNAL COORDINATES (A.U.)
---------------------------
 O      0   0   0     0.000000000000     0.00000000     0.00000000
 O      1   0   0     5.156033797896     0.00000000     0.00000000
 O      2   1   0     5.160748704608   107.94925627     0.00000000
 O      3   2   1     5.181590492944   107.06628089    13.09730221
 O      1   2   3     5.157586644278   107.06549532   344.98490806
 H      1   2   3     1.848020750926     2.93309900   181.59899752
 H      2   1   3     1.847638623787   109.97391047   359.38512925
 H      3   2   1     1.846212150968   111.32718232    11.52866055
 H      4   3   2     1.847963479265   109.94962754   354.18953913
 H      5   1   2     1.847877819540     2.96622939   156.26657087
 H      1   2   3     1.810615538830   106.61897896   115.42672130
 H      2   1   3     1.810873462523   118.80609298   120.74784289
 H      3   2   1     1.810408465785   118.11621857   249.19366164
 H      4   3   2     1.810175628768   125.39988308   227.11000997
 H      5   1   2     1.811049315570   105.20261475   244.80497783

---------------------
BASIS SET INFORMATION
---------------------
There are 2 groups of distinct atoms

 Group   1 Type O   : 19s6p3d2f contracted to 5s4p3d2f pattern {88111/3111/111/11}
 Group   2 Type H   : 6s3p2d contracted to 4s3p2d pattern {3111/111/11}

Atom   0O    basis set group =>   1
Atom   1O    basis set group =>   1
Atom   2O    basis set group =>   1
Atom   3O    basis set group =>   1
Atom   4O    basis set group =>   1
Atom   5H    basis set group =>   2
Atom   6H    basis set group =>   2
Atom   7H    basis set group =>   2
Atom   8H    basis set group =>   2
Atom   9H    basis set group =>   2
Atom  10H    basis set group =>   2
Atom  11H    basis set group =>   2
Atom  12H    basis set group =>   2
Atom  13H    basis set group =>   2
Atom  14H    basis set group =>   2
---------------------------------
AUXILIARY/C BASIS SET INFORMATION
---------------------------------
There are 2 groups of distinct atoms

 Group   1 Type O   : 8s6p5d3f1g contracted to 8s6p4d3f1g pattern {11111111/111111/2111/111/1}
 Group   2 Type H   : 4s3p2d contracted to 4s2p1d pattern {1111/21/2}

Atom   0O    basis set group =>   1
Atom   1O    basis set group =>   1
Atom   2O    basis set group =>   1
Atom   3O    basis set group =>   1
Atom   4O    basis set group =>   1
Atom   5H    basis set group =>   2
Atom   6H    basis set group =>   2
Atom   7H    basis set group =>   2
Atom   8H    basis set group =>   2
Atom   9H    basis set group =>   2
Atom  10H    basis set group =>   2
Atom  11H    basis set group =>   2
Atom  12H    basis set group =>   2
Atom  13H    basis set group =>   2
Atom  14H    basis set group =>   2
----------------------------------
AUXILIARY/JK BASIS SET INFORMATION
----------------------------------
There are 2 groups of distinct atoms

 Group   1 Type O   : 14s10p6d2f1g contracted to 10s8p4d2f1g pattern {5111111111/31111111/3111/11/1}
 Group   2 Type H   : 4s2p2d contracted to 2s2p2d pattern {31/11/11}

Atom   0O    basis set group =>   1
Atom   1O    basis set group =>   1
Atom   2O    basis set group =>   1
Atom   3O    basis set group =>   1
Atom   4O    basis set group =>   1
Atom   5H    basis set group =>   2
Atom   6H    basis set group =>   2
Atom   7H    basis set group =>   2
Atom   8H    basis set group =>   2
Atom   9H    basis set group =>   2
Atom  10H    basis set group =>   2
Atom  11H    basis set group =>   2
Atom  12H    basis set group =>   2
Atom  13H    basis set group =>   2
Atom  14H    basis set group =>   2


           ************************************************************
           *        Program running with 24 parallel MPI-processes    *
           *              working on a common directory               *
           ************************************************************
------------------------------------------------------------------------------
                           ORCA GTO INTEGRAL CALCULATION
                           -- RI-GTO INTEGRALS CHOSEN --
------------------------------------------------------------------------------

                         BASIS SET STATISTICS AND STARTUP INFO

Gaussian basis set:
 # of primitive gaussian shells          ...  260
 # of primitive gaussian functions       ...  580
 # of contracted shells                  ...  160
 # of contracted basis functions         ...  460
 Highest angular momentum                ...    3
 Maximum contraction depth               ...    8
Auxiliary gaussian basis set:
 # of primitive gaussian shells          ...  245
 # of primitive gaussian functions       ...  685
 # of contracted shells                  ...  185
 # of contracted aux-basis functions     ...  565
 Highest angular momentum                ...    4
 Maximum contraction depth               ...    5
Ratio of auxiliary to basis functions    ...  1.23
Integral package used                  ... LIBINT
 One Electron integrals                  ... done
 Ordering auxiliary basis shells         ... done
 Integral threshhold             Thresh  ...  2.500e-11
 Primitive cut-off               TCut    ...  2.500e-12
 Pre-screening matrix                    ... done
 Shell pair data                         ... 
 Ordering of the shell pairs             ... done (   0.002 sec) 12013 of 12880 pairs
 Determination of significant pairs      ... done (   0.000 sec)
 Creation of shell pair data             ... done (   0.001 sec)
 Storage of shell pair data              ... done (   0.010 sec)
 Shell pair data done in (   0.013 sec)
 Computing two index integrals           ... done
 Cholesky decomposition of the V-matrix  ... done


Timings:
 Total evaluation time                   ...   0.387 sec (  0.006 min)
 One electron matrix time                ...   0.095 sec (  0.002 min) = 24.5%
 Schwartz matrix evaluation time         ...   0.165 sec (  0.003 min) = 42.6%
 Two index repulsion integral time       ...   0.006 sec (  0.000 min) =  1.5%
 Cholesky decomposition of V             ...   0.082 sec (  0.001 min) = 21.2%
 Three index repulsion integral time     ...   0.000 sec (  0.000 min) =  0.0%



           ************************************************************
           *        Program running with 24 parallel MPI-processes    *
           *              working on a common directory               *
           ************************************************************
-------------------------------------------------------------------------------
                                 ORCA SCF
-------------------------------------------------------------------------------

------------
SCF SETTINGS
------------
Hamiltonian:
 Density Functional     Method          .... DFT(GTOs)
 Exchange Functional    Exchange        .... B88
   X-Alpha parameter    XAlpha          ....  0.666667
   Becke's b parameter  XBeta           ....  0.004200
 Correlation Functional Correlation     .... LYP
 LDA part of GGA corr.  LDAOpt          .... VWN-3
 Gradients option       PostSCFGGA      .... off
 Hybrid DFT is turned on
   Fraction HF Exchange ScalHFX         ....  0.530000
   Scaling of DF-GGA-X  ScalDFX         ....  0.470000
   Scaling of DF-GGA-C  ScalDFC         ....  0.730000
   Scaling of DF-LDA-C  ScalLDAC        ....  0.730000
   Perturbative correction              ....  0.270000
   Density functional embedding theory  .... OFF
 RI-approximation to the Coulomb term is turned on
   Number of auxiliary basis functions  .... 565
   RI-JK (J+K treated both via RI)      .... on


General Settings:
 Integral files         IntName         .... 05_H2O_5
 Hartree-Fock type      HFTyp           .... RHF
 Total Charge           Charge          ....    0
 Multiplicity           Mult            ....    1
 Number of Electrons    NEL             ....   50
 Basis Dimension        Dim             ....  460
 Nuclear Repulsion      ENuc            ....    202.7548338254 Eh

Convergence Acceleration:
 DIIS                   CNVDIIS         .... on
   Start iteration      DIISMaxIt       ....    12
   Startup error        DIISStart       ....  0.200000
   # of expansion vecs  DIISMaxEq       ....     5
   Bias factor          DIISBfac        ....   1.050
   Max. coefficient     DIISMaxC        ....  10.000
 Newton-Raphson         CNVNR           .... off
 SOSCF                  CNVSOSCF        .... on
   Start iteration      SOSCFMaxIt      ....   150
   Startup grad/error   SOSCFStart      ....  0.003300
 Level Shifting         CNVShift        .... on
   Level shift para.    LevelShift      ....    0.2500
   Turn off err/grad.   ShiftErr        ....    0.0010
 Zerner damping         CNVZerner       .... off
 Static damping         CNVDamp         .... on
   Fraction old density DampFac         ....    0.7000
   Max. Damping (<1)    DampMax         ....    0.9800
   Min. Damping (>=0)   DampMin         ....    0.0000
   Turn off err/grad.   DampErr         ....    0.1000
 Fernandez-Rico         CNVRico         .... off

SCF Procedure:
 Maximum # iterations   MaxIter         ....   125
 SCF integral mode      SCFMode         .... Direct
   Integral package                     .... LIBINT
 Reset frequency        DirectResetFreq ....    20
 Integral Threshold     Thresh          ....  2.500e-11 Eh
 Primitive CutOff       TCut            ....  2.500e-12 Eh

Convergence Tolerance:
 Convergence Check Mode ConvCheckMode   .... Total+1el-Energy
 Convergence forced     ConvForced      .... 0
 Energy Change          TolE            ....  1.000e-08 Eh
 1-El. energy change                    ....  1.000e-05 Eh
 Orbital Gradient       TolG            ....  1.000e-05
 Orbital Rotation angle TolX            ....  1.000e-05
 DIIS Error             TolErr          ....  5.000e-07


Diagonalization of the overlap matrix:
Smallest eigenvalue                        ... 1.108e-04
Time for diagonalization                   ...    0.050 sec
Threshold for overlap eigenvalues          ... 1.000e-08
Number of eigenvalues below threshold      ... 0
Time for construction of square roots      ...    0.026 sec
Total time needed                          ...    0.078 sec

-------------------
DFT GRID GENERATION
-------------------

General Integration Accuracy     IntAcc      ...  4.670
Radial Grid Type                 RadialGrid  ... Gauss-Chebyshev
Angular Grid (max. acc.)         AngularGrid ... Lebedev-302
Angular grid pruning method      GridPruning ... 3 (G Style)
Weight generation scheme         WeightScheme... Becke
Basis function cutoff            BFCut       ...    1.0000e-11
Integration weight cutoff        WCut        ...    1.0000e-14
Grids for H and He will be reduced by one unit

# of grid points (after initial pruning)     ...  65000 (   0.0 sec)
# of grid points (after weights+screening)   ...  61006 (   0.0 sec)
nearest neighbour list constructed           ...    0.0 sec
Grid point re-assignment to atoms done       ...    0.0 sec
Grid point division into batches done        ...    0.2 sec
Reduced shell lists constructed in    0.2 sec

Total number of grid points                  ...    61006
Total number of batches                      ...      960
Average number of points per batch           ...       63
Average number of grid points per atom       ...     4067
Average number of shells per batch           ...   106.54 (66.59%)
Average number of basis functions per batch  ...   293.37 (63.78%)
Average number of large shells per batch     ...    85.71 (80.45%)
Average number of large basis fcns per batch ...   229.17 (78.12%)
Average number of aux-shells per batch       ...   106.54 (57.59%)
Average number of aux functions per batch    ...   293.37 (51.92%)
Maximum spatial batch extension              ...  11.76, 10.65,  8.33 au
Average spatial batch extension              ...   0.09,  0.09,  0.08 au

Time for grid setup =    0.300 sec

------------------------------
INITIAL GUESS: MODEL POTENTIAL
------------------------------
Loading Hartree-Fock densities                     ... done
Calculating cut-offs                               ... done
Setting up the integral package                    ... done
Initializing the effective Hamiltonian             ... done
Starting the Coulomb interaction                   ... done (   0.0 sec)
Reading the grid                                   ... done
Mapping shells                                     ... done
Starting the XC term evaluation                    ... done (   0.1 sec)
  promolecular density results
     # of electrons  =     49.994577283
     EX              =    -43.957982661
     EC              =     -0.562402058
     EX+EC           =    -44.520384719
Transforming the Hamiltonian                       ... done (   0.0 sec)
Diagonalizing the Hamiltonian                      ... done (   0.0 sec)
Back transforming the eigenvectors                 ... done (   0.0 sec)
Now organizing SCF variables                       ... done
                      ------------------
                      INITIAL GUESS DONE (   0.6 sec)
                      ------------------
--------------
SCF ITERATIONS
--------------
ITER       Energy         Delta-E        Max-DP      RMS-DP      [F,P]     Damp
  0   -381.2903404122   0.000000000000 0.04010104  0.00063247  0.3456337 0.7000
  1   -381.0110702249   0.279270187300 0.03007342  0.00058599  0.2513524 0.7000
                               ***Turning on DIIS***
  2   -381.1461562953  -0.135086070354 0.03775335  0.00088006  0.0965037 0.0000
  3   -381.5601254448  -0.413969149495 0.00894436  0.00015349  0.1868057 0.7000
  4   -381.6904100871  -0.130284642350 0.00696844  0.00014729  0.1679292 0.7000
  5   -381.7175479310  -0.027137843852 0.00567354  0.00012055  0.1338874 0.7000
  6   -381.7225443506  -0.004996419650 0.00461646  0.00009829  0.1043991 0.7000
  7   -381.7226654703  -0.000121119702 0.02007856  0.00038756  0.0808276 0.0000
  8   -381.6925166615   0.030148808830 0.00190400  0.00002928  0.0071292 0.0000
                      *** Initiating the SOSCF procedure ***
                           *** Shutting down DIIS ***
                      *** Re-Reading the Fockian *** 
                      *** Removing any level shift *** 
ITER      Energy       Delta-E        Grad      Rot      Max-DP    RMS-DP
  9   -381.69269635  -0.0001796911  0.000277  0.000277  0.000482  0.000009
 10   -381.69271275  -0.0000163993  0.000181  0.000178  0.000382  0.000008
 11   -381.69271274   0.0000000092  0.000161  0.000076  0.000220  0.000003
 12   -381.69271488  -0.0000021339  0.000004  0.000003  0.000012  0.000000
                  ***Gradient check signals convergence***
              ***Rediagonalizing the Fockian in SOSCF/NRSCF***

               *****************************************************
               *                     SUCCESS                       *
               *           SCF CONVERGED AFTER  13 CYCLES          *
               *****************************************************


----------------
TOTAL SCF ENERGY
----------------

Total Energy       :         -381.69271488 Eh          -10386.38681 eV

Components:
Nuclear Repulsion  :          202.75483383 Eh            5517.23952 eV
Electronic Energy  :         -584.44754870 Eh          -15903.62632 eV
One Electron Energy:         -929.20514972 Eh          -25284.95759 eV
Two Electron Energy:          344.75760102 Eh            9381.33126 eV

Virial components:
Potential Energy   :         -761.89515217 Eh          -20732.22110 eV
Kinetic Energy     :          380.20243730 Eh           10345.83429 eV
Virial Ratio       :            2.00391969


DFT components:
N(Alpha)           :       24.999873426217 electrons
N(Beta)            :       24.999873426217 electrons
N(Total)           :       49.999746852434 electrons
E(X)               :      -21.115287117657 Eh       
E(C)               :       -1.263232774470 Eh       
E(XC)              :      -22.378519892127 Eh       
DFET-embed. en.    :        0.000000000000 Eh       

---------------
SCF CONVERGENCE
---------------

  Last Energy change         ...   -9.2319e-10  Tolerance :   1.0000e-08
  Last MAX-Density change    ...    5.5156e-06  Tolerance :   1.0000e-07
  Last RMS-Density change    ...    8.8628e-08  Tolerance :   5.0000e-09
  Last Orbital Gradient      ...    9.3281e-07  Tolerance :   1.0000e-05
  Last Orbital Rotation      ...    1.4399e-06  Tolerance :   1.0000e-05

             **** THE GBW FILE WAS UPDATED (05_H2O_5.gbw) ****
             **** DENSITY FILE WAS UPDATED (05_H2O_5.scfp) ****
             **** ENERGY FILE WAS UPDATED (05_H2O_5.en.tmp) ****
             **** THE GBW FILE WAS UPDATED (05_H2O_5.gbw) ****
             **** DENSITY FILE WAS UPDATED (05_H2O_5.scfp) ****
----------------
ORBITAL ENERGIES
----------------

  NO   OCC          E(Eh)            E(eV) 
   0   2.0000     -19.726547      -536.7866 
   1   2.0000     -19.725272      -536.7519 
   2   2.0000     -19.725136      -536.7482 
   3   2.0000     -19.724867      -536.7409 
   4   2.0000     -19.724588      -536.7333 
   5   2.0000      -1.164433       -31.6858 
   6   2.0000      -1.155247       -31.4359 
   7   2.0000      -1.154555       -31.4170 
   8   2.0000      -1.139384       -31.0042 
   9   2.0000      -1.138535       -30.9811 
  10   2.0000      -0.617326       -16.7983 
  11   2.0000      -0.613136       -16.6843 
  12   2.0000      -0.611094       -16.6287 
  13   2.0000      -0.608913       -16.5694 
  14   2.0000      -0.607472       -16.5302 
  15   2.0000      -0.509522       -13.8648 
  16   2.0000      -0.506304       -13.7772 
  17   2.0000      -0.466206       -12.6861 
  18   2.0000      -0.463805       -12.6208 
  19   2.0000      -0.438065       -11.9203 
  20   2.0000      -0.401138       -10.9155 
  21   2.0000      -0.396980       -10.8024 
  22   2.0000      -0.396468       -10.7884 
  23   2.0000      -0.395726       -10.7682 
  24   2.0000      -0.391864       -10.6632 
  25   0.0000       0.000097         0.0026 
  26   0.0000       0.016495         0.4489 
  27   0.0000       0.018815         0.5120 
  28   0.0000       0.028754         0.7824 
  29   0.0000       0.036590         0.9957 
  30   0.0000       0.054400         1.4803 
  31   0.0000       0.059001         1.6055 
  32   0.0000       0.061415         1.6712 
  33   0.0000       0.066671         1.8142 
  34   0.0000       0.078762         2.1432 
  35   0.0000       0.107388         2.9222 
  36   0.0000       0.113546         3.0897 
  37   0.0000       0.117484         3.1969 
  38   0.0000       0.117662         3.2018 
  39   0.0000       0.129018         3.5108 
  40   0.0000       0.131745         3.5850 
  41   0.0000       0.134975         3.6729 
  42   0.0000       0.136912         3.7256 
  43   0.0000       0.154875         4.2144 
  44   0.0000       0.158315         4.3080 
  45   0.0000       0.169171         4.6034 
  46   0.0000       0.176328         4.7981 
  47   0.0000       0.181742         4.9454 
  48   0.0000       0.184542         5.0216 
  49   0.0000       0.187950         5.1144 
  50   0.0000       0.194667         5.2972 
  51   0.0000       0.205694         5.5972 
  52   0.0000       0.210281         5.7220 
  53   0.0000       0.221511         6.0276 
  54   0.0000       0.223172         6.0728 
  55   0.0000       0.235088         6.3971 
  56   0.0000       0.237284         6.4568 
  57   0.0000       0.243025         6.6131 
  58   0.0000       0.247602         6.7376 
  59   0.0000       0.253384         6.8949 
  60   0.0000       0.260978         7.1016 
  61   0.0000       0.284975         7.7546 
  62   0.0000       0.311007         8.4629 
  63   0.0000       0.315183         8.5766 
  64   0.0000       0.324663         8.8345 
  65   0.0000       0.334176         9.0934 
  66   0.0000       0.337359         9.1800 
  67   0.0000       0.339748         9.2450 
  68   0.0000       0.343948         9.3593 
  69   0.0000       0.353537         9.6202 
  70   0.0000       0.359242         9.7755 
  71   0.0000       0.363982         9.9045 
  72   0.0000       0.369280        10.0486 
  73   0.0000       0.371537        10.1100 
  74   0.0000       0.375498        10.2178 
  75   0.0000       0.377760        10.2794 
  76   0.0000       0.380156        10.3446 
  77   0.0000       0.385103        10.4792 
  78   0.0000       0.389216        10.5911 
  79   0.0000       0.398256        10.8371 
  80   0.0000       0.402271        10.9463 
  81   0.0000       0.407905        11.0997 
  82   0.0000       0.411118        11.1871 
  83   0.0000       0.414547        11.2804 
  84   0.0000       0.431869        11.7518 
  85   0.0000       0.435553        11.8520 
  86   0.0000       0.437977        11.9180 
  87   0.0000       0.441969        12.0266 
  88   0.0000       0.447664        12.1816 
  89   0.0000       0.450207        12.2507 
  90   0.0000       0.500912        13.6305 
  91   0.0000       0.510543        13.8926 
  92   0.0000       0.520702        14.1690 
  93   0.0000       0.522329        14.2133 
  94   0.0000       0.530807        14.4440 
  95   0.0000       0.534392        14.5415 
  96   0.0000       0.576216        15.6796 
  97   0.0000       0.591130        16.0855 
  98   0.0000       0.597522        16.2594 
  99   0.0000       0.620860        16.8945 
 100   0.0000       0.629441        17.1280 
 101   0.0000       0.642650        17.4874 
 102   0.0000       0.648274        17.6404 
 103   0.0000       0.651507        17.7284 
 104   0.0000       0.680037        18.5047 
 105   0.0000       0.683835        18.6081 
 106   0.0000       0.697272        18.9737 
 107   0.0000       0.711732        19.3672 
 108   0.0000       0.717262        19.5177 
 109   0.0000       0.723274        19.6813 
 110   0.0000       0.734071        19.9751 
 111   0.0000       0.740705        20.1556 
 112   0.0000       0.754615        20.5341 
 113   0.0000       0.758071        20.6282 
 114   0.0000       0.771731        20.9999 
 115   0.0000       0.784832        21.3564 
 116   0.0000       0.785175        21.3657 
 117   0.0000       0.794014        21.6062 
 118   0.0000       0.804815        21.9001 
 119   0.0000       0.812308        22.1040 
 120   0.0000       0.823609        22.4115 
 121   0.0000       0.840432        22.8693 
 122   0.0000       0.842010        22.9122 
 123   0.0000       0.845403        23.0046 
 124   0.0000       0.846530        23.0353 
 125   0.0000       0.855579        23.2815 
 126   0.0000       0.866603        23.5815 
 127   0.0000       0.879359        23.9286 
 128   0.0000       0.885005        24.0822 
 129   0.0000       0.894949        24.3528 
 130   0.0000       0.896052        24.3828 
 131   0.0000       0.905711        24.6456 
 132   0.0000       0.906438        24.6654 
 133   0.0000       0.911307        24.7979 
 134   0.0000       0.916960        24.9518 
 135   0.0000       0.925356        25.1802 
 136   0.0000       0.927278        25.2325 
 137   0.0000       0.933866        25.4118 
 138   0.0000       0.939476        25.5645 
 139   0.0000       0.956408        26.0252 
 140   0.0000       0.960609        26.1395 
 141   0.0000       0.961036        26.1511 
 142   0.0000       0.972246        26.4562 
 143   0.0000       0.980434        26.6790 
 144   0.0000       0.985195        26.8085 
 145   0.0000       1.005074        27.3495 
 146   0.0000       1.015729        27.6394 
 147   0.0000       1.029974        28.0270 
 148   0.0000       1.036132        28.1946 
 149   0.0000       1.038345        28.2548 
 150   0.0000       1.070848        29.1393 
 151   0.0000       1.078118        29.3371 
 152   0.0000       1.087550        29.5937 
 153   0.0000       1.096251        29.8305 
 154   0.0000       1.103043        30.0153 
 155   0.0000       1.114944        30.3392 
 156   0.0000       1.123433        30.5702 
 157   0.0000       1.125031        30.6136 
 158   0.0000       1.143106        31.1055 
 159   0.0000       1.149938        31.2914 
 160   0.0000       1.155931        31.4545 
 161   0.0000       1.160165        31.5697 
 162   0.0000       1.169853        31.8333 
 163   0.0000       1.184896        32.2427 
 164   0.0000       1.188950        32.3530 
 165   0.0000       1.201470        32.6937 
 166   0.0000       1.208536        32.8859 
 167   0.0000       1.216573        33.1046 
 168   0.0000       1.241264        33.7765 
 169   0.0000       1.249496        34.0005 
 170   0.0000       1.260438        34.2983 
 171   0.0000       1.282215        34.8909 
 172   0.0000       1.291213        35.1357 
 173   0.0000       1.298085        35.3227 
 174   0.0000       1.308762        35.6132 
 175   0.0000       1.310902        35.6715 
 176   0.0000       1.319972        35.9183 
 177   0.0000       1.330267        36.1984 
 178   0.0000       1.340242        36.4698 
 179   0.0000       1.350860        36.7588 
 180   0.0000       1.389631        37.8138 
 181   0.0000       1.397252        38.0212 
 182   0.0000       1.403712        38.1970 
 183   0.0000       1.405095        38.2346 
 184   0.0000       1.441373        39.2218 
 185   0.0000       1.444143        39.2971 
 186   0.0000       1.458866        39.6978 
 187   0.0000       1.469577        39.9892 
 188   0.0000       1.478480        40.2315 
 189   0.0000       1.491728        40.5920 
 190   0.0000       1.513590        41.1869 
 191   0.0000       1.518826        41.3294 
 192   0.0000       1.527167        41.5563 
 193   0.0000       1.565322        42.5946 
 194   0.0000       1.576307        42.8935 
 195   0.0000       1.598701        43.5029 
 196   0.0000       1.615812        43.9685 
 197   0.0000       1.625837        44.2413 
 198   0.0000       1.634042        44.4645 
 199   0.0000       1.649721        44.8912 
 200   0.0000       1.667124        45.3648 
 201   0.0000       1.680536        45.7297 
 202   0.0000       1.693637        46.0862 
 203   0.0000       1.696148        46.1545 
 204   0.0000       1.702012        46.3141 
 205   0.0000       1.712650        46.6036 
 206   0.0000       1.716767        46.7156 
 207   0.0000       1.742484        47.4154 
 208   0.0000       1.759511        47.8787 
 209   0.0000       1.779837        48.4318 
 210   0.0000       1.789236        48.6876 
 211   0.0000       1.805182        49.1215 
 212   0.0000       1.820957        49.5508 
 213   0.0000       1.864672        50.7403 
 214   0.0000       1.878966        51.1293 
 215   0.0000       1.896967        51.6191 
 216   0.0000       1.902204        51.7616 
 217   0.0000       1.915352        52.1194 
 218   0.0000       1.939667        52.7810 
 219   0.0000       1.949659        53.0529 
 220   0.0000       2.009249        54.6744 
 221   0.0000       2.012725        54.7690 
 222   0.0000       2.022425        55.0330 
 223   0.0000       2.077329        56.5270 
 224   0.0000       2.081095        56.6295 
 225   0.0000       2.144926        58.3664 
 226   0.0000       2.224789        60.5396 
 227   0.0000       2.229180        60.6591 
 228   0.0000       2.234596        60.8064 
 229   0.0000       2.244074        61.0644 
 230   0.0000       2.248738        61.1913 
 231   0.0000       2.269975        61.7692 
 232   0.0000       2.271966        61.8233 
 233   0.0000       2.308656        62.8217 
 234   0.0000       2.331870        63.4534 
 235   0.0000       2.343950        63.7821 
 236   0.0000       2.353386        64.0389 
 237   0.0000       2.357683        64.1558 
 238   0.0000       2.366609        64.3987 
 239   0.0000       2.378570        64.7242 
 240   0.0000       2.393147        65.1208 
 241   0.0000       2.398908        65.2776 
 242   0.0000       2.412035        65.6348 
 243   0.0000       2.424691        65.9792 
 244   0.0000       2.437461        66.3267 
 245   0.0000       2.446813        66.5812 
 246   0.0000       2.451090        66.6975 
 247   0.0000       2.461950        66.9931 
 248   0.0000       2.482690        67.5574 
 249   0.0000       2.498658        67.9919 
 250   0.0000       2.504679        68.1558 
 251   0.0000       2.524007        68.6817 
 252   0.0000       2.534011        68.9540 
 253   0.0000       2.544596        69.2420 
 254   0.0000       2.554545        69.5127 
 255   0.0000       2.587874        70.4196 
 256   0.0000       2.601132        70.7804 
 257   0.0000       2.606603        70.9293 
 258   0.0000       2.617714        71.2316 
 259   0.0000       2.626805        71.4790 
 260   0.0000       2.650209        72.1159 
 261   0.0000       2.669826        72.6497 
 262   0.0000       2.692247        73.2598 
 263   0.0000       2.703939        73.5779 
 264   0.0000       2.707347        73.6706 
 265   0.0000       2.722310        74.0778 
 266   0.0000       2.742429        74.6253 
 267   0.0000       2.751893        74.8828 
 268   0.0000       2.777486        75.5792 
 269   0.0000       2.782897        75.7265 
 270   0.0000       2.813816        76.5678 
 271   0.0000       2.818198        76.6871 
 272   0.0000       2.825640        76.8896 
 273   0.0000       2.836227        77.1777 
 274   0.0000       2.865208        77.9663 
 275   0.0000       2.882070        78.4251 
 276   0.0000       2.900674        78.9314 
 277   0.0000       2.902308        78.9758 
 278   0.0000       2.908912        79.1555 
 279   0.0000       2.937589        79.9359 
 280   0.0000       2.941664        80.0467 
 281   0.0000       2.964860        80.6779 
 282   0.0000       2.990612        81.3787 
 283   0.0000       3.028609        82.4126 
 284   0.0000       3.043511        82.8182 
 285   0.0000       3.068945        83.5102 
 286   0.0000       3.075553        83.6901 
 287   0.0000       3.093325        84.1737 
 288   0.0000       3.108284        84.5807 
 289   0.0000       3.166373        86.1614 
 290   0.0000       3.676505       100.0428 
 291   0.0000       3.690346       100.4194 
 292   0.0000       3.702374       100.7467 
 293   0.0000       3.708041       100.9009 
 294   0.0000       3.716568       101.1330 
 295   0.0000       3.928622       106.9032 
 296   0.0000       3.947036       107.4043 
 297   0.0000       3.951609       107.5287 
 298   0.0000       3.963075       107.8408 
 299   0.0000       3.966183       107.9253 
 300   0.0000       3.987173       108.4965 
 301   0.0000       3.992011       108.6281 
 302   0.0000       3.995509       108.7233 
 303   0.0000       4.012118       109.1753 
 304   0.0000       4.023528       109.4858 
 305   0.0000       4.076728       110.9334 
 306   0.0000       4.083260       111.1111 
 307   0.0000       4.092815       111.3712 
 308   0.0000       4.101617       111.6107 
 309   0.0000       4.110165       111.8433 
 310   0.0000       4.119928       112.1089 
 311   0.0000       4.125877       112.2708 
 312   0.0000       4.133479       112.4777 
 313   0.0000       4.140965       112.6814 
 314   0.0000       4.162986       113.2806 
 315   0.0000       4.171813       113.5208 
 316   0.0000       4.204522       114.4109 
 317   0.0000       4.225070       114.9700 
 318   0.0000       4.234569       115.2285 
 319   0.0000       4.249259       115.6282 
 320   0.0000       4.306145       117.1762 
 321   0.0000       4.322001       117.6076 
 322   0.0000       4.343162       118.1834 
 323   0.0000       4.350908       118.3942 
 324   0.0000       4.356745       118.5531 
 325   0.0000       4.378226       119.1376 
 326   0.0000       4.386031       119.3500 
 327   0.0000       4.403374       119.8219 
 328   0.0000       4.409700       119.9940 
 329   0.0000       4.428218       120.4979 
 330   0.0000       4.437679       120.7554 
 331   0.0000       4.452401       121.1560 
 332   0.0000       4.453405       121.1833 
 333   0.0000       4.466680       121.5445 
 334   0.0000       4.482265       121.9686 
 335   0.0000       4.491055       122.2078 
 336   0.0000       4.503947       122.5586 
 337   0.0000       4.514205       122.8378 
 338   0.0000       4.518379       122.9513 
 339   0.0000       4.531089       123.2972 
 340   0.0000       4.536724       123.4505 
 341   0.0000       4.550168       123.8164 
 342   0.0000       4.590248       124.9070 
 343   0.0000       4.595335       125.0454 
 344   0.0000       4.605316       125.3170 
 345   0.0000       4.688591       127.5831 
 346   0.0000       4.710970       128.1920 
 347   0.0000       4.727447       128.6404 
 348   0.0000       4.740306       128.9903 
 349   0.0000       4.756493       129.4307 
 350   0.0000       4.854036       132.0850 
 351   0.0000       4.883116       132.8763 
 352   0.0000       4.884446       132.9125 
 353   0.0000       4.909640       133.5981 
 354   0.0000       4.915558       133.7591 
 355   0.0000       4.968655       135.2040 
 356   0.0000       4.983748       135.6147 
 357   0.0000       5.001968       136.1105 
 358   0.0000       5.013070       136.4126 
 359   0.0000       5.057572       137.6235 
 360   0.0000       5.066240       137.8594 
 361   0.0000       5.078364       138.1893 
 362   0.0000       5.108931       139.0211 
 363   0.0000       5.156655       140.3197 
 364   0.0000       5.164226       140.5257 
 365   0.0000       5.174813       140.8138 
 366   0.0000       5.188020       141.1732 
 367   0.0000       5.192240       141.2880 
 368   0.0000       5.197996       141.4447 
 369   0.0000       5.220292       142.0514 
 370   0.0000       5.245786       142.7451 
 371   0.0000       5.278408       143.6328 
 372   0.0000       5.305251       144.3632 
 373   0.0000       5.331011       145.0642 
 374   0.0000       5.339695       145.3005 
 375   0.0000       5.407605       147.1484 
 376   0.0000       5.445288       148.1738 
 377   0.0000       5.479675       149.1095 
 378   0.0000       5.509482       149.9206 
 379   0.0000       5.536009       150.6425 
 380   0.0000       5.667163       154.2113 
 381   0.0000       5.679218       154.5394 
 382   0.0000       5.709514       155.3638 
 383   0.0000       5.718142       155.5985 
 384   0.0000       5.749052       156.4396 
 385   0.0000       6.150822       167.3724 
 386   0.0000       6.167806       167.8345 
 387   0.0000       6.187021       168.3574 
 388   0.0000       6.191988       168.4926 
 389   0.0000       6.203726       168.8120 
 390   0.0000       6.308469       171.6622 
 391   0.0000       6.319452       171.9610 
 392   0.0000       6.320790       171.9974 
 393   0.0000       6.326152       172.1433 
 394   0.0000       6.330618       172.2649 
 395   0.0000       6.629205       180.3898 
 396   0.0000       6.637295       180.6100 
 397   0.0000       6.670758       181.5206 
 398   0.0000       6.682908       181.8512 
 399   0.0000       6.699892       182.3133 
 400   0.0000       6.706088       182.4819 
 401   0.0000       6.728265       183.0854 
 402   0.0000       6.778494       184.4522 
 403   0.0000       6.790478       184.7783 
 404   0.0000       6.837527       186.0586 
 405   0.0000       6.933027       188.6573 
 406   0.0000       6.955755       189.2757 
 407   0.0000       6.971877       189.7144 
 408   0.0000       6.980571       189.9510 
 409   0.0000       6.988440       190.1651 
 410   0.0000       7.021670       191.0694 
 411   0.0000       7.065767       192.2693 
 412   0.0000       7.073247       192.4728 
 413   0.0000       7.076154       192.5519 
 414   0.0000       7.085913       192.8175 
 415   0.0000       7.114851       193.6049 
 416   0.0000       7.132797       194.0933 
 417   0.0000       7.135204       194.1588 
 418   0.0000       7.143298       194.3790 
 419   0.0000       7.164126       194.9458 
 420   0.0000       7.169039       195.0795 
 421   0.0000       7.174914       195.2393 
 422   0.0000       7.198422       195.8790 
 423   0.0000       7.212677       196.2669 
 424   0.0000       7.230816       196.7605 
 425   0.0000       7.233609       196.8365 
 426   0.0000       7.243076       197.0941 
 427   0.0000       7.246835       197.1964 
 428   0.0000       7.277666       198.0353 
 429   0.0000       7.292168       198.4300 
 430   0.0000       7.328128       199.4085 
 431   0.0000       7.348347       199.9587 
 432   0.0000       7.363193       200.3627 
 433   0.0000       7.414638       201.7625 
 434   0.0000       7.420966       201.9348 
 435   0.0000       7.559096       205.6935 
 436   0.0000       7.561903       205.7698 
 437   0.0000       7.581180       206.2944 
 438   0.0000       7.603845       206.9111 
 439   0.0000       7.611738       207.1259 
 440   0.0000       7.755028       211.0250 
 441   0.0000       7.758220       211.1119 
 442   0.0000       7.764830       211.2918 
 443   0.0000       7.769588       211.4212 
 444   0.0000       7.780003       211.7046 
 445   0.0000       7.786104       211.8706 
 446   0.0000       7.810218       212.5268 
 447   0.0000       7.885165       214.5663 
 448   0.0000       7.897829       214.9108 
 449   0.0000       7.983799       217.2502 
 450   0.0000       8.688307       236.4209 
 451   0.0000       8.705036       236.8761 
 452   0.0000       8.717007       237.2018 
 453   0.0000       8.731941       237.6082 
 454   0.0000       8.774743       238.7729 
 455   0.0000      15.791481       429.7080 
 456   0.0000      16.414958       446.6737 
 457   0.0000      16.479109       448.4193 
 458   0.0000      17.391122       473.2365 
 459   0.0000      17.416908       473.9382 

                    ********************************
                    * MULLIKEN POPULATION ANALYSIS *
                    ********************************

-----------------------
MULLIKEN ATOMIC CHARGES
-----------------------
   0 O :   -0.438526
   1 O :   -0.434322
   2 O :   -0.428258
   3 O :   -0.446514
   4 O :   -0.432179
   5 H :    0.284338
   6 H :    0.287401
   7 H :    0.273237
   8 H :    0.289849
   9 H :    0.285210
  10 H :    0.151233
  11 H :    0.151792
  12 H :    0.155354
  13 H :    0.150600
  14 H :    0.150785
Sum of atomic charges:   -0.0000000

--------------------------------
MULLIKEN REDUCED ORBITAL CHARGES
--------------------------------
  0 O s       :     3.885450  s :     3.885450
      pz      :     1.451787  p :     4.541428
      px      :     1.582657
      py      :     1.506983
      dz2     :     0.002794  d :     0.011574
      dxz     :     0.001551
      dyz     :     0.001703
      dx2y2   :     0.002903
      dxy     :     0.002623
      f0      :    -0.000028  f :     0.000075
      f+1     :     0.000117
      f-1     :     0.000034
      f+2     :    -0.000003
      f-2     :     0.000112
      f+3     :    -0.000161
      f-3     :     0.000004
  1 O s       :     3.883050  s :     3.883050
      pz      :     1.437468  p :     4.539273
      px      :     1.426215
      py      :     1.675590
      dz2     :     0.003302  d :     0.011927
      dxz     :     0.000990
      dyz     :     0.002249
      dx2y2   :     0.005806
      dxy     :    -0.000421
      f0      :    -0.000040  f :     0.000072
      f+1     :    -0.000064
      f-1     :     0.000204
      f+2     :     0.000053
      f-2     :     0.000042
      f+3     :    -0.000085
      f-3     :    -0.000038
  2 O s       :     3.888655  s :     3.888655
      pz      :     1.483441  p :     4.528910
      px      :     1.685247
      py      :     1.360221
      dz2     :     0.002795  d :     0.010649
      dxz     :     0.002511
      dyz     :     0.001142
      dx2y2   :     0.003221
      dxy     :     0.000981
      f0      :     0.000010  f :     0.000044
      f+1     :     0.000178
      f-1     :    -0.000095
      f+2     :     0.000080
      f-2     :     0.000047
      f+3     :    -0.000033
      f-3     :    -0.000144
  3 O s       :     3.888682  s :     3.888682
      pz      :     1.630276  p :     4.545659
      px      :     1.334998
      py      :     1.580385
      dz2     :     0.002861  d :     0.012019
      dxz     :     0.000818
      dyz     :     0.001614
      dx2y2   :     0.000720
      dxy     :     0.006005
      f0      :     0.000181  f :     0.000154
      f+1     :     0.000081
      f-1     :     0.000028
      f+2     :     0.000063
      f-2     :     0.000115
      f+3     :    -0.000031
      f-3     :    -0.000283
  4 O s       :     3.883282  s :     3.883282
      pz      :     1.468877  p :     4.537226
      px      :     1.590155
      py      :     1.478194
      dz2     :     0.002939  d :     0.011620
      dxz     :     0.002599
      dyz     :     0.000902
      dx2y2   :    -0.000690
      dxy     :     0.005870
      f0      :    -0.000001  f :     0.000050
      f+1     :     0.000090
      f-1     :     0.000024
      f+2     :     0.000043
      f-2     :     0.000083
      f+3     :    -0.000131
      f-3     :    -0.000057
  5 H s       :     0.593472  s :     0.593472
      pz      :     0.035584  p :     0.075042
      px      :     0.026803
      py      :     0.012655
      dz2     :     0.003124  d :     0.047149
      dxz     :     0.004812
      dyz     :     0.012226
      dx2y2   :     0.016358
      dxy     :     0.010629
  6 H s       :     0.592794  s :     0.592794
      pz      :     0.034323  p :     0.072811
      px      :    -0.004063
      py      :     0.042552
      dz2     :     0.002682  d :     0.046994
      dxz     :     0.014998
      dyz     :     0.001140
      dx2y2   :     0.006670
      dxy     :     0.021503
  7 H s       :     0.607750  s :     0.607750
      pz      :     0.035219  p :     0.073904
      px      :     0.051038
      py      :    -0.012353
      dz2     :     0.003020  d :     0.045110
      dxz     :     0.000129
      dyz     :     0.013502
      dx2y2   :     0.007048
      dxy     :     0.021411
  8 H s       :     0.588965  s :     0.588965
      pz      :     0.041762  p :     0.074132
      px      :    -0.005898
      py      :     0.038268
      dz2     :     0.002271  d :     0.047054
      dxz     :     0.017496
      dyz     :     0.002349
      dx2y2   :     0.014414
      dxy     :     0.010524
  9 H s       :     0.592101  s :     0.592101
      pz      :     0.036671  p :     0.076848
      px      :     0.031756
      py      :     0.008420
      dz2     :     0.002931  d :     0.045841
      dxz     :     0.006948
      dyz     :     0.009116
      dx2y2   :     0.022651
      dxy     :     0.004195
 10 H s       :     0.720763  s :     0.720763
      pz      :     0.027064  p :     0.110814
      px      :     0.046921
      py      :     0.036829
      dz2     :     0.006138  d :     0.017190
      dxz     :     0.002072
      dyz     :     0.004161
      dx2y2   :     0.001627
      dxy     :     0.003193
 11 H s       :     0.718856  s :     0.718856
      pz      :     0.025255  p :     0.111973
      px      :     0.034706
      py      :     0.052012
      dz2     :     0.005788  d :     0.017379
      dxz     :     0.003757
      dyz     :     0.003246
      dx2y2   :     0.002550
      dxy     :     0.002039
 12 H s       :     0.718534  s :     0.718534
      pz      :     0.027430  p :     0.108810
      px      :     0.051727
      py      :     0.029653
      dz2     :     0.006629  d :     0.017302
      dxz     :     0.003104
      dyz     :     0.001967
      dx2y2   :     0.003867
      dxy     :     0.001735
 13 H s       :     0.722283  s :     0.722283
      pz      :     0.037100  p :     0.109946
      px      :     0.033726
      py      :     0.039120
      dz2     :     0.006829  d :     0.017171
      dxz     :     0.001394
      dyz     :     0.001606
      dx2y2   :     0.004867
      dxy     :     0.002474
 14 H s       :     0.718578  s :     0.718578
      pz      :     0.027907  p :     0.113156
      px      :     0.041985
      py      :     0.043264
      dz2     :     0.006487  d :     0.017481
      dxz     :     0.003895
      dyz     :     0.001784
      dx2y2   :     0.002013
      dxy     :     0.003302


                     *******************************
                     * LOEWDIN POPULATION ANALYSIS *
                     *******************************

----------------------
LOEWDIN ATOMIC CHARGES
----------------------
   0 O :    1.124004
   1 O :    1.124077
   2 O :    1.125275
   3 O :    1.122778
   4 O :    1.123023
   5 H :   -0.670565
   6 H :   -0.669937
   7 H :   -0.664618
   8 H :   -0.670992
   9 H :   -0.670898
  10 H :   -0.453722
  11 H :   -0.452678
  12 H :   -0.454888
  13 H :   -0.457632
  14 H :   -0.453227

-------------------------------
LOEWDIN REDUCED ORBITAL CHARGES
-------------------------------
  0 O s       :     2.947146  s :     2.947146
      pz      :     1.259215  p :     3.809687
      px      :     1.283277
      py      :     1.267195
      dz2     :     0.023935  d :     0.100910
      dxz     :     0.023441
      dyz     :     0.005448
      dx2y2   :     0.013155
      dxy     :     0.034931
      f0      :     0.000938  f :     0.018253
      f+1     :     0.005236
      f-1     :     0.002980
      f+2     :     0.001654
      f-2     :     0.000883
      f+3     :     0.005609
      f-3     :     0.000954
  1 O s       :     2.947111  s :     2.947111
      pz      :     1.256517  p :     3.809765
      px      :     1.240468
      py      :     1.312779
      dz2     :     0.026202  d :     0.100759
      dxz     :     0.004942
      dyz     :     0.022243
      dx2y2   :     0.027973
      dxy     :     0.019398
      f0      :     0.001290  f :     0.018288
      f+1     :     0.002584
      f-1     :     0.005671
      f+2     :     0.001648
      f-2     :     0.000595
      f+3     :     0.004551
      f-3     :     0.001950
  2 O s       :     2.947018  s :     2.947018
      pz      :     1.278872  p :     3.808835
      px      :     1.314758
      py      :     1.215204
      dz2     :     0.021837  d :     0.100587
      dxz     :     0.018264
      dyz     :     0.010569
      dx2y2   :     0.037484
      dxy     :     0.012433
      f0      :     0.000464  f :     0.018285
      f+1     :     0.004858
      f-1     :     0.003197
      f+2     :     0.000922
      f-2     :     0.002172
      f+3     :     0.002013
      f-3     :     0.004659
  3 O s       :     2.948821  s :     2.948821
      pz      :     1.325231  p :     3.810397
      px      :     1.197906
      py      :     1.287260
      dz2     :     0.014258  d :     0.100037
      dxz     :     0.013448
      dyz     :     0.014238
      dx2y2   :     0.029204
      dxy     :     0.028889
      f0      :     0.000762  f :     0.017967
      f+1     :     0.002231
      f-1     :     0.002663
      f+2     :     0.000538
      f-2     :     0.004244
      f+3     :     0.001668
      f-3     :     0.005861
  4 O s       :     2.947783  s :     2.947783
      pz      :     1.266909  p :     3.810295
      px      :     1.291200
      py      :     1.252187
      dz2     :     0.022492  d :     0.100598
      dxz     :     0.009331
      dyz     :     0.020014
      dx2y2   :     0.012798
      dxy     :     0.035964
      f0      :     0.000667  f :     0.018301
      f+1     :     0.004071
      f-1     :     0.004168
      f+2     :     0.000671
      f-2     :     0.002066
      f+3     :     0.003514
      f-3     :     0.003144
  5 H s       :     0.539051  s :     0.539051
      pz      :     0.138866  p :     0.623989
      px      :     0.194899
      py      :     0.290224
      dz2     :     0.055455  d :     0.507525
      dxz     :     0.049616
      dyz     :     0.107551
      dx2y2   :     0.143436
      dxy     :     0.151468
  6 H s       :     0.539273  s :     0.539273
      pz      :     0.136932  p :     0.623433
      px      :     0.336237
      py      :     0.150264
      dz2     :     0.052581  d :     0.507231
      dxz     :     0.145374
      dyz     :     0.012554
      dx2y2   :     0.148248
      dxy     :     0.148473
  7 H s       :     0.541395  s :     0.541395
      pz      :     0.139608  p :     0.619217
      px      :     0.140168
      py      :     0.339440
      dz2     :     0.049125  d :     0.504006
      dxz     :     0.001507
      dyz     :     0.158486
      dx2y2   :     0.151873
      dxy     :     0.143015
  8 H s       :     0.539403  s :     0.539403
      pz      :     0.145073  p :     0.624324
      px      :     0.312860
      py      :     0.166391
      dz2     :     0.050819  d :     0.507265
      dxz     :     0.137064
      dyz     :     0.020693
      dx2y2   :     0.147964
      dxy     :     0.150725
  9 H s       :     0.539164  s :     0.539164
      pz      :     0.138992  p :     0.623960
      px      :     0.226932
      py      :     0.258036
      dz2     :     0.054795  d :     0.507773
      dxz     :     0.060630
      dyz     :     0.096009
      dx2y2   :     0.145977
      dxy     :     0.150363
 10 H s       :     0.579944  s :     0.579944
      pz      :     0.222294  p :     0.529222
      px      :     0.168820
      py      :     0.138107
      dz2     :     0.108200  d :     0.344557
      dxz     :     0.089624
      dyz     :     0.080174
      dx2y2   :     0.028018
      dxy     :     0.038541
 11 H s       :     0.579111  s :     0.579111
      pz      :     0.225536  p :     0.528851
      px      :     0.131537
      py      :     0.171778
      dz2     :     0.111091  d :     0.344715
      dxz     :     0.083179
      dyz     :     0.090367
      dx2y2   :     0.027835
      dxy     :     0.032243
 12 H s       :     0.580413  s :     0.580413
      pz      :     0.220448  p :     0.530049
      px      :     0.172659
      py      :     0.136942
      dz2     :     0.106797  d :     0.344425
      dxz     :     0.082328
      dyz     :     0.075447
      dx2y2   :     0.045724
      dxy     :     0.034130
 13 H s       :     0.581797  s :     0.581797
      pz      :     0.201036  p :     0.531137
      px      :     0.152774
      py      :     0.177327
      dz2     :     0.083676  d :     0.344698
      dxz     :     0.063078
      dyz     :     0.068909
      dx2y2   :     0.075318
      dxy     :     0.053717
 14 H s       :     0.578905  s :     0.578905
      pz      :     0.220708  p :     0.529322
      px      :     0.150903
      py      :     0.157711
      dz2     :     0.106543  d :     0.345001
      dxz     :     0.079286
      dyz     :     0.086406
      dx2y2   :     0.036470
      dxy     :     0.036296


                      *****************************
                      * MAYER POPULATION ANALYSIS *
                      *****************************

  NA   - Mulliken gross atomic population
  ZA   - Total nuclear charge
  QA   - Mulliken gross atomic charge
  VA   - Mayer's total valence
  BVA  - Mayer's bonded valence
  FA   - Mayer's free valence

  ATOM       NA         ZA         QA         VA         BVA        FA
  0 O      8.4385     8.0000    -0.4385     1.9224     1.9224    -0.0000
  1 O      8.4343     8.0000    -0.4343     1.9177     1.9177     0.0000
  2 O      8.4283     8.0000    -0.4283     1.9234     1.9234     0.0000
  3 O      8.4465     8.0000    -0.4465     1.9219     1.9219    -0.0000
  4 O      8.4322     8.0000    -0.4322     1.9232     1.9232    -0.0000
  5 H      0.7157     1.0000     0.2843     0.9924     0.9924    -0.0000
  6 H      0.7126     1.0000     0.2874     0.9877     0.9877    -0.0000
  7 H      0.7268     1.0000     0.2732     1.0049     1.0049     0.0000
  8 H      0.7102     1.0000     0.2898     0.9863     0.9863     0.0000
  9 H      0.7148     1.0000     0.2852     0.9905     0.9905     0.0000
 10 H      0.8488     1.0000     0.1512     1.0989     1.0989    -0.0000
 11 H      0.8482     1.0000     0.1518     1.1009     1.1009    -0.0000
 12 H      0.8446     1.0000     0.1554     1.0874     1.0874    -0.0000
 13 H      0.8494     1.0000     0.1506     1.0965     1.0965    -0.0000
 14 H      0.8492     1.0000     0.1508     1.1038     1.1038     0.0000

  Mayer bond orders larger than 0.100000
B(  0-O ,  5-H ) :   0.8799 B(  0-O , 10-H ) :   1.0652 B(  1-O ,  6-H ) :   0.8788 
B(  1-O , 11-H ) :   1.0632 B(  2-O ,  7-H ) :   0.8914 B(  2-O , 12-H ) :   1.0606 
B(  3-O ,  8-H ) :   0.8757 B(  3-O , 13-H ) :   1.0704 B(  4-O ,  9-H ) :   0.8802 
B(  4-O , 14-H ) :   1.0652 

-------
TIMINGS
-------

Total SCF time: 0 days 0 hours 0 min 9 sec 

Total time                  ....       9.661 sec
Sum of individual times     ....       9.287 sec  ( 96.1%)

Fock matrix formation       ....       7.934 sec  ( 82.1%)
  XC integration            ....       1.628 sec  ( 20.5% of F)
    Basis function eval.    ....       0.273 sec  ( 16.7% of XC)
    Density eval.           ....       0.360 sec  ( 22.1% of XC)
    XC-Functional eval.     ....       0.031 sec  (  1.9% of XC)
    XC-Potential eval.      ....       0.594 sec  ( 36.5% of XC)
Diagonalization             ....       0.404 sec  (  4.2%)
Density matrix formation    ....       0.031 sec  (  0.3%)
Population analysis         ....       0.032 sec  (  0.3%)
Initial guess               ....       0.252 sec  (  2.6%)
Orbital Transformation      ....       0.000 sec  (  0.0%)
Orbital Orthonormalization  ....       0.000 sec  (  0.0%)
DIIS solution               ....       0.214 sec  (  2.2%)
SOSCF solution              ....       0.120 sec  (  1.2%)
Grid generation             ....       0.300 sec  (  3.1%)


           ************************************************************
           *        Program running with 24 parallel MPI-processes    *
           *              working on a common directory               *
           ************************************************************

------------------------------------------------------------------------------
                                ORCA  MP2 
------------------------------------------------------------------------------

Freezing NCore=10 chemical core electrons

----------------------
RI-MP2 ENERGY+GRADIENT
----------------------
Dimension of the basis                    ...  460
Memory devoted to MP2                     ... 5000 MB   
Data format for buffers                   ... DOUBLE
Compression type for matrix containers    ... UNCOMPRESSED
Overall scaling of the MP2 energy         ...   2.700e-01
Calculating two index integrals           ... done (    0.002 sec)
Cholesky decomposition of the V-matrix    ... done
Cholesky decomposition of V**-1           ... done (    0.010 sec)

-----------------
RI-TRANSFORMATION (AUX index driven)
-----------------

Dimension of the orbital-basis         ... 460
Dimension of the aux-basis             ... 530
Transformation of internal MOs         ...    0-  24
Transformation of internal/external MOs...    0-  24 to   25- 459
Number Format for Storage              ... Double (8 Byte)
Integral mode                          ... Direct

First Phase: integral generation and transformation of MO indices
  Aux angular momentum 0               ... done (    0.021 sec)
  Aux angular momentum 1               ... done (    0.046 sec)
  Aux angular momentum 2               ... done (    0.042 sec)
  Aux angular momentum 3               ... done (    0.025 sec)
  Aux angular momentum 4               ... done (    0.033 sec)
Closing buffer VIJ ( 0.00 GB; CompressionRatio= 1.00)
Closing buffer VIA ( 0.04 GB; CompressionRatio= 1.00)
  Phase 1 completed in     0.250 sec
Second Phase: sorting and transformation of aux index

IJ-Transformation
Memory available                       ... 4977 MB 
Max. # MO pairs treated in a batch     ... 2    
# of internal orbitals                 ... 25
# batches for internal orbitals        ... 1
Closing buffer IJV ( 0.00 GB; CompressionRatio= 1.00)
(ij|v) transformation done in     0.015 sec

IA-Transformation
Memory available                       ... 4977 MB 
Max. # MO pairs treated in a batch     ... 2    
# of internal orbitals                 ... 25
# batches for internal orbitals        ... 1
Closing buffer IAV ( 0.00 GB; CompressionRatio= 1.00)
(ia|v) transformation done in     0.026 sec

  Phase 2 completed in     0.094 sec
RI-Integral transformation completed in     0.349 sec
Opening buffers                              ... done
Frozen core precalculation                   ... done

Starting loop over batches of integrals:

Operator 0  - window                       ... (  5- 24)x( 25-459)
Operator 0  - Memory available             ...  5000 MB
Operator 0  - Memory needed per MO         ...   3.5 MB
Operator 0  - Number of orbitals per batch ... 1
Operator 0  - Number of batches            ... 1

OPERATOR  0   PASS   0:  MOs     5 ...    5 +    6 ...    6 +    7 ...    7 +    8 ...    8
                            +    9 ...    9 +   10 ...   10 +   11 ...   11 +   12 ...   12
                            +   13 ...   13 +   14 ...   14 +   15 ...   15 +   16 ...   16
                            +   17 ...   17 +   18 ...   18 +   19 ...   19 +   20 ...   20
                            +   21 ...   21 +   22 ...   22 +   23 ...   23 +   24 ...   24
  Reading integrals       ... ok
Closing buffer GIPV ( 0.00 GB; CompressionRatio= 1.00)
Time spent in pair loops =     2.199 sec
Deleting buffer (Ka|jb)[aa] ...done

-----------------------------------------------
 RI-MP2 CORRELATION ENERGY:     -0.437367108 Eh
-----------------------------------------------


---------------------
MP2 DENSITY FORMATION
---------------------

Completing the external part of the density      ... done
Storing the unrelaxed density                    ... done

Calculating the xc-kernel                        ... done
Calculating G(D)                                 ... done
Completing the Lagrangian                        ... done
Solving the Z-vector equations                   ... 

------------------------------------------------------------------------------
                           ORCA CP-SCF CALCULATION
------------------------------------------------------------------------------

Input orbitals are from        ... 05_H2O_5.gbw
Input Perturbation             ... 05_H2O_5.pin.tmp
Wavefunction output            ... 05_H2O_5.pout.tmp
Perturbation mode              ... Real perturbation (singlet)
Solver                         ... POPLE
Max. number of iterations      ... 128
Convergence tolerance          ... 1.000e-08
Integral handling              ... Direct
Number of perturbations        ... 1
Number of operators            ... 1
Orbital ranges used for CP-SCF:
 Operator 0:  Orbitals   0... 24  to  25...459
DFT calculation                         ... on
Exchange functional (SCF)               ... B88
Exchange functional (CP-SCF)            ... B88
   X-Alpha parameter    XAlpha (SCF)    ...  0.666667
   X-Alpha parameter    XAlpha (CP-SCF) ...  0.666667
   Becke's b parameter  XBeta (SCF)     ...  0.004200
   Becke's b parameter  XBeta (CP-SCF)  ...  0.004200
Correlation functional (SCF)            ... LYP
Correlation functional (CP-SCF)         ... LYP
 LDA part of GGA corr.  LDAOpt (SCF)    ... VWN-3
 LDA part of GGA corr.  LDAOpt (CP-SCF) ... VWN-3
Hybrid DFT                              ... on
   Exchange mixing (SCF)                ...  0.530
   Exchange mixing (CP-SCF)             ...  0.530
   GGA exch. scaling(SCF)               ...  0.470
   GGA exch. scaling (CP-SCF)           ...  0.470
   GGA corr. scaling (SCF)              ...  0.730
   GGA corr. scaling (CP-SCF)           ...  0.730
Variables per vector in CP-SCF ... 10875
Number of vectors sought       ... 1
Recalculating density on grid  ... done
Calculating the xc-kernel      ... done
     CP-SCF ITERATION   0: 
     CP-SCF ITERATION   1:      0.000068342847
     CP-SCF ITERATION   2:      0.000001462077
     CP-SCF ITERATION   3:      0.000000060832
     CP-SCF ITERATION   4:      0.000000003231
done
Finalizing the relaxed density                   ... done
Transforming P to the AO basis                   ... done
Storing the relaxed density                      ... done

------------------------------------
ENERGY WEIGHTED DENSITY FINALIZATION
------------------------------------

Gathering the parts of the W-matrix              ... done
Forming the Z-density                            ... done
Transforming Z to the AO basis                   ... done
Calculating G(Z)                                 ... done
Finalizing the W-matrix                          ... done
Transforming W to the AO basis and storing       ... done
Entering the RIJONX and RIJCOSX sections
Starting the three-index derivative integrals:
Operator 0  - Memory available             ...  5000 MB
Operator 0  - Memory needed per MO         ...   3.7 MB
Operator 0  - Number of orbitals per batch ... 1
Operator 0  - Number of batches            ... 1

OPERATOR  0   PASS   0:  MOs     5 ...    5 +    6 ...    6 +    7 ...    7 +    8 ...    8
                            +    9 ...    9 +   10 ...   10 +   11 ...   11 +   12 ...   12
                            +   13 ...   13 +   14 ...   14 +   15 ...   15 +   16 ...   16
                            +   17 ...   17 +   18 ...   18 +   19 ...   19 +   20 ...   20
                            +   21 ...   21 +   22 ...   22 +   23 ...   23 +   24 ...   24

----------------------------------
MP2 DERIVATIVE INTEGRAL GENERATION
----------------------------------


Input Correlated Electron Density   ... 05_H2O_5.pmp2re
Input Energy Weighted Density       ... 05_H2O_5.wmp2.tmp
Input SCF Electron Density          ... 05_H2O_5.scfp

One-Electron Terms    ...
                        ... One-Electron Terms done
Prescreening matrices              ... done
Exchange-correlation gradient    ... done
Dispersion correction            ... done

                *********************************************
                * UNRELAXED MP2 DENSITY POPULATION ANALYSIS *
                *********************************************

------------------------------------------------------------------------------
                           ORCA POPULATION ANALYSIS
------------------------------------------------------------------------------
Input electron density              ... 05_H2O_5.pmp2ur
BaseName (.gbw .S,...)              ... 05_H2O_5

                    ********************************
                    * MULLIKEN POPULATION ANALYSIS *
                    ********************************

-----------------------
MULLIKEN ATOMIC CHARGES
-----------------------
   0 O :   -0.432527
   1 O :   -0.428328
   2 O :   -0.422215
   3 O :   -0.440468
   4 O :   -0.426230
[...]
     43      -0.023937   0.008664   0.003002  -0.020566   0.001335   0.021048
     44      -0.040910   0.033770  -0.038216  -0.038325   0.026695  -0.010953
                 30         31         32         33         34         35    
      0      -0.002784  -0.002414   0.004788  -0.003068  -0.006730  -0.014119
      1       0.032968   0.010545  -0.029732   0.009630   0.024026  -0.026099
      2      -0.027268  -0.004634   0.023521  -0.004702  -0.017392  -0.002516
      3      -0.021597  -0.027397  -0.015661  -0.011662   0.020606  -0.027397
      4      -0.007665  -0.012638  -0.009193  -0.005907   0.013572   0.005122
      5      -0.023185  -0.026415  -0.011786  -0.013104   0.019608   0.000524
      6       0.005613   0.009678   0.018849  -0.025003   0.020639  -0.003287
      7      -0.005637  -0.011600  -0.014917   0.019928  -0.013026   0.022261
      8      -0.010231  -0.015812  -0.023201   0.025591  -0.018718   0.001009
      9      -0.004747   0.010429  -0.005276  -0.009142  -0.000348   0.025467
     10      -0.018000   0.031417  -0.030458  -0.027030  -0.014846   0.012082
     11      -0.011131   0.016063  -0.020072  -0.012756  -0.010897   0.000479
     12       0.029651  -0.025711  -0.006835  -0.027486  -0.022999   0.019702
     13      -0.007166   0.006283  -0.001133   0.001390   0.000673  -0.021134
     14      -0.022024   0.020781   0.002312   0.018538   0.016319   0.002330
     15       0.195114   0.053804  -0.194981   0.060786   0.180777   0.229920
     16      -0.177086  -0.052360   0.162525  -0.053686  -0.141265   0.413172
     17       0.404039   0.104114  -0.378140   0.104919   0.308986   0.072994
     18       0.061839   0.078719   0.046962   0.031534  -0.062254   0.438785
     19       0.165682   0.224621   0.124778   0.112510  -0.211874  -0.085960
     20       0.318010   0.396197   0.213516   0.197379  -0.332258  -0.044543
     21      -0.085243  -0.123669  -0.244676   0.287443  -0.246615   0.051414
     22      -0.014565  -0.008647  -0.039595   0.031426  -0.036838  -0.359733
     23       0.116185   0.201716   0.313519  -0.396168   0.296809   0.011246
     24      -0.071763   0.128007  -0.138092  -0.123163  -0.077925  -0.413832
     25       0.182479  -0.302833   0.326992   0.259890   0.176883  -0.180215
     26       0.145592  -0.256812   0.259755   0.238212   0.129435   0.014924
     27      -0.202159   0.180983   0.053135   0.210099   0.184998  -0.309966
     28      -0.115786   0.112614   0.028363   0.136873   0.127166   0.340806
     29       0.342937  -0.317844  -0.056115  -0.320578  -0.276623  -0.069745
     30      -0.131297  -0.032599   0.118078  -0.032575  -0.095525  -0.032213
     31      -0.349088  -0.108100   0.330396  -0.103586  -0.274772   0.001025
     32       0.034350   0.005831  -0.028545   0.005941   0.021249  -0.041424
     33       0.275585   0.359686   0.206304   0.169121  -0.301187  -0.011072
     34      -0.018617  -0.014059  -0.001157  -0.007803   0.007553   0.030272
     35       0.043716   0.050809   0.025081   0.024489  -0.039028   0.044503
     36      -0.025781  -0.050462  -0.089955   0.119566  -0.092931   0.020871
     37       0.100026   0.165941   0.283531  -0.349715   0.272514   0.019151
     38       0.026752   0.041122   0.065450  -0.076321   0.057986  -0.029560
     39       0.149662  -0.270614   0.256033   0.241800   0.122866   0.030589
     40       0.108206  -0.212185   0.179460   0.196734   0.079217  -0.024784
     41       0.028950  -0.040220   0.052946   0.030776   0.029942  -0.025672
     42      -0.263355   0.238248   0.052829   0.247381   0.210539  -0.010300
     43       0.206042  -0.186032  -0.039305  -0.191091  -0.163638  -0.030444
     44       0.028872  -0.025922  -0.003582  -0.023995  -0.020630   0.038293
                 36         37         38         39         40         41    
      0      -0.011014  -0.013536   0.015545   0.004790  -0.000518   0.001365
      1      -0.021472  -0.027206   0.030072   0.009829   0.000532   0.000484
      2      -0.002454  -0.002018   0.003243   0.000736  -0.001210   0.001874
      3      -0.034365   0.020801  -0.018627  -0.029098   0.014452   0.000360
      4       0.005278  -0.003455   0.003217   0.004359  -0.031936  -0.000454
      5       0.000300  -0.000932   0.000828   0.000383  -0.052208  -0.000741
      6      -0.000124   0.006108  -0.001029   0.008048   0.000956  -0.001317
      7      -0.000743  -0.032710   0.003615  -0.044044   0.001672  -0.001400
      8       0.000671  -0.001820   0.000635  -0.002183  -0.001928   0.002241
      9      -0.034167  -0.014335  -0.022017   0.020807   0.000075   0.000615
     10      -0.017423  -0.007626  -0.011537   0.010183   0.000072   0.000508
     11      -0.000623  -0.000536  -0.000535   0.000511   0.000007   0.000186
     12      -0.014761   0.021439   0.026406  -0.003162   0.000227  -0.012569
     13       0.014622  -0.021916  -0.026890   0.003747   0.000345  -0.034764
     14      -0.001002   0.002895   0.003407  -0.000766  -0.000575   0.050496
     15       0.194988   0.240794  -0.280640  -0.088740  -0.004953  -0.005658
     16       0.334833   0.429494  -0.480961  -0.156249  -0.006961  -0.009907
     17       0.064008   0.079911  -0.096639  -0.031178  -0.004457  -0.001596
     18       0.553735  -0.332640   0.305709   0.476424  -0.101114  -0.003792
     19      -0.111592   0.073842  -0.067578  -0.100099   0.006196   0.000245
     20      -0.060780   0.038824  -0.037902  -0.057701  -0.015730   0.000245
     21       0.004743  -0.071499   0.010335  -0.090451   0.001549  -0.001761
     22       0.009086   0.538486  -0.060224   0.736753  -0.013049   0.005094
     23      -0.004834  -0.018752  -0.000589  -0.027995  -0.000027   0.001096
     24       0.574315   0.242325   0.379415  -0.360641  -0.001266  -0.013922
     25       0.241855   0.108632   0.158792  -0.144383  -0.000777  -0.004899
     26      -0.024703  -0.010200  -0.019348   0.018268   0.000057   0.002072
     27       0.228067  -0.327058  -0.409077   0.053053  -0.000116  -0.068554
     28      -0.248663   0.371263   0.464252  -0.063261   0.000061   0.051820
     29       0.052126  -0.079147  -0.102878   0.013933  -0.000454   0.012099
     30      -0.019958  -0.038221   0.032255   0.013938   0.013701  -0.018138
     31      -0.007899   0.002212   0.011416   0.000542  -0.001823   0.004079
     32      -0.027443  -0.050569   0.044899   0.018669   0.021396  -0.029137
     33      -0.016120   0.015011  -0.014559  -0.018457  -0.125838  -0.001792
     34       0.039858  -0.012956   0.013527   0.031342   0.501397   0.007024
     35       0.060550  -0.024740   0.025613   0.051720   0.845978   0.012005
     36       0.010202  -0.030934   0.008486  -0.032950  -0.020100   0.022546
     37      -0.001235  -0.031203   0.003378  -0.045846  -0.013456   0.016858
     38      -0.009051   0.046967  -0.010449   0.059660   0.031183  -0.036374
     39      -0.045650  -0.021128  -0.032947   0.030445   0.000204   0.003956
     40       0.029320   0.024296   0.021595  -0.008268  -0.000326  -0.003348
     41       0.037308   0.020670   0.027589  -0.022777  -0.000158  -0.004146
     42       0.014508  -0.001645  -0.003388  -0.004600  -0.003209   0.270372
     43       0.027720  -0.029343  -0.040032   0.002251  -0.005978   0.498503
     44      -0.037846   0.035292   0.049437  -0.001673   0.009665  -0.814236
                  42         43         44    
      0      -0.000455  -0.035561  -0.000055
      1      -0.000071   0.000233  -0.000139
      2      -0.000671  -0.051703  -0.000030
      3       0.001224   0.000136  -0.000003
      4      -0.001427   0.000823  -0.000055
      5      -0.002125   0.001317  -0.000071
      6      -0.028931   0.000365  -0.000981
      7      -0.028528   0.000158  -0.001616
      8       0.047822  -0.000509   0.001656
      9       0.001882  -0.000028  -0.039428
     10      -0.000786  -0.000045   0.031225
     11      -0.001451  -0.000017   0.037615
     12       0.000693  -0.000004   0.000514
     13       0.001546  -0.001814  -0.000040
     14      -0.002351   0.001946  -0.000324
     15       0.000744   0.030138   0.000953
     16       0.002095   0.084295   0.001927
     17       0.000040  -0.011632   0.000400
     18      -0.014540  -0.005226   0.000164
     19       0.002775   0.002056   0.000104
     20       0.003074   0.001844   0.000097
     21      -0.028271  -0.000137  -0.002220
     22       0.087912   0.001323   0.011080
     23       0.023158  -0.000411   0.002844
     24      -0.010756   0.000391   0.070645
     25      -0.004515   0.000387   0.055046
     26       0.000125  -0.000077   0.016821
     27       0.001882  -0.009783  -0.004378
     28      -0.001191   0.010945   0.006236
     29      -0.000844  -0.003681  -0.001852
     30       0.006674   0.532717   0.000217
     31      -0.001155  -0.090007  -0.000060
     32       0.010583   0.832938   0.000562
     33      -0.004292   0.004261  -0.000112
     34       0.019438  -0.012471   0.000688
     35       0.032554  -0.021408   0.001053
     36       0.486724  -0.005150   0.017411
     37       0.361919  -0.003834   0.013406
     38      -0.783359   0.008140  -0.027947
     39      -0.019315  -0.000197   0.552556
     40       0.020582   0.000185  -0.550491
     41       0.022334   0.000146  -0.614705
     42      -0.012731   0.009986  -0.001092
     43      -0.023352   0.017352  -0.004179
     44       0.038021  -0.028676   0.006145


-----------
IR SPECTRUM  
-----------

 Mode    freq (cm**-1)   T**2         TX         TY         TZ
-------------------------------------------------------------------
   6:        24.30    2.192719  ( -0.141010  -1.468910   0.123035)
   7:        44.41    0.122789  (  0.177923   0.041069  -0.299074)
   8:        64.35    0.068288  ( -0.199952  -0.100090  -0.135238)
   9:        67.37    1.439227  ( -0.064485   0.096198  -1.194075)
  10:       184.90    1.289219  ( -0.711173   0.399697  -0.789743)
  11:       201.73   24.218142  ( -4.562466  -0.565211  -1.755728)
  12:       222.62  110.441342  (  5.267366  -2.020823   8.866367)
  13:       242.32   26.032186  (  0.909151   4.966857   0.732092)
  14:       243.09   32.115305  (  5.276557  -0.543338   1.994500)
  15:       257.26  131.027000  ( 11.400928  -0.496445  -0.894079)
  16:       286.17  225.934586  ( -3.515963 -14.611373  -0.283469)
  17:       305.84   22.739874  ( -1.582140   4.415246   0.861575)
  18:       307.76    9.864024  ( -2.027004   2.368961  -0.378553)
  19:       318.20   68.280558  ( -8.235316  -0.378106   0.563169)
  20:       422.71   58.473049  ( -6.783500   3.447650   0.755573)
  21:       442.33   10.091274  (  0.393431   3.144642  -0.218431)
  22:       463.32   15.218410  (  2.032871  -3.327835   0.106567)
  23:       476.43   20.763986  (  1.985129   0.104984   4.100272)
  24:       530.30   62.251684  (  2.317163   5.221375  -5.442397)
  25:       722.51   24.070237  ( -3.726120  -0.516889  -3.149459)
  26:       796.30  158.472402  (  1.048459  -0.002171 -12.544845)
  27:       865.60  148.820434  (-11.225471  -2.565308  -4.028454)
  28:       887.39  148.479439  (  1.006039 -11.925982   2.288726)
  29:       986.96   10.353185  (  2.697582  -0.954868  -1.471212)
  30:      1652.19   79.413991  ( -0.751259   0.674618   8.854066)
  31:      1661.91   19.386429  (  3.545432  -2.477725   0.822930)
  32:      1673.27   70.678684  (  0.612369   7.876545   2.874670)
  33:      1690.75   50.266267  (  6.990290  -0.308167  -1.143302)
  34:      1699.86    3.232315  ( -1.005314  -1.030940   1.076486)
  35:      3317.98   18.057880  ( -0.117189   4.245991   0.125318)
  36:      3403.65  2228.842267  ( 47.016284   4.268148  -0.306892)
  37:      3413.64  2068.687778  ( -4.561796  45.252507   0.297333)
  38:      3463.07   87.775601  (  0.168451   0.624613  -9.346501)
  39:      3471.08   69.769928  (  0.325837   7.808988  -2.946771)
  40:      3876.33   81.720513  ( -5.205666   3.910071   6.271595)
  41:      3881.15   80.123583  ( -1.142308   6.500651  -6.046507)
  42:      3882.15   65.372140  (  2.205656   6.638714  -4.053973)
  43:      3883.95   71.415523  (  5.571660   3.079960   5.557516)
  44:      3886.54   72.779684  (  7.351967  -1.669475  -3.992633)

The first frequency considered to be a vibration is 6
The total number of vibrations considered is 39


--------------------------
THERMOCHEMISTRY AT 298.15K
--------------------------

Temperature         ... 298.15 K
Pressure            ... 1.00 atm
Total Mass          ... 90.07 AMU

Throughout the following assumptions are being made:
  (1) The electronic state is orbitally nondegenerate
  (2) There are no thermally accessible electronically excited states
  (3) Hindered rotations indicated by low frequency modes are not
      treated as such but are treated as vibrations and this may
      cause some error
  (4) All equations used are the standard statistical mechanics
      equations for an ideal gas
  (5) All vibrations are strictly harmonic

freq.      24.30  E(vib)   ...       0.56 
freq.      44.41  E(vib)   ...       0.53 
freq.      64.35  E(vib)   ...       0.51 
freq.      67.37  E(vib)   ...       0.50 
freq.     184.90  E(vib)   ...       0.37 
freq.     201.73  E(vib)   ...       0.35 
freq.     222.62  E(vib)   ...       0.33 
freq.     242.32  E(vib)   ...       0.31 
freq.     243.09  E(vib)   ...       0.31 
freq.     257.26  E(vib)   ...       0.30 
freq.     286.17  E(vib)   ...       0.27 
freq.     305.84  E(vib)   ...       0.26 
freq.     307.76  E(vib)   ...       0.26 
freq.     318.20  E(vib)   ...       0.25 
freq.     422.71  E(vib)   ...       0.18 
freq.     442.33  E(vib)   ...       0.17 
freq.     463.32  E(vib)   ...       0.16 
freq.     476.43  E(vib)   ...       0.15 
freq.     530.30  E(vib)   ...       0.13 
freq.     722.51  E(vib)   ...       0.07 
freq.     796.30  E(vib)   ...       0.05 
freq.     865.60  E(vib)   ...       0.04 
freq.     887.39  E(vib)   ...       0.04 
freq.     986.96  E(vib)   ...       0.02 
freq.    1652.19  E(vib)   ...       0.00 
freq.    1661.91  E(vib)   ...       0.00 
freq.    1673.27  E(vib)   ...       0.00 
freq.    1690.75  E(vib)   ...       0.00 
freq.    1699.86  E(vib)   ...       0.00 
freq.    3317.98  E(vib)   ...       0.00 
freq.    3403.65  E(vib)   ...       0.00 
freq.    3413.64  E(vib)   ...       0.00 
freq.    3463.07  E(vib)   ...       0.00 
freq.    3471.08  E(vib)   ...       0.00 
freq.    3876.33  E(vib)   ...       0.00 
freq.    3881.15  E(vib)   ...       0.00 
freq.    3882.15  E(vib)   ...       0.00 
freq.    3883.95  E(vib)   ...       0.00 
freq.    3886.54  E(vib)   ...       0.00 

------------
INNER ENERGY
------------

The inner energy is: U= E(el) + E(ZPE) + E(vib) + E(rot) + E(trans)
    E(el)   - is the total energy from the electronic structure calculation
              = E(kin-el) + E(nuc-el) + E(el-el) + E(nuc-nuc)
    E(ZPE)  - the the zero temperature vibrational energy from the frequency calculation
    E(vib)  - the the finite temperature correction to E(ZPE) due to population
              of excited vibrational states
    E(rot)  - is the rotational thermal energy
    E(trans)- is the translational thermal energy

Summary of contributions to the inner energy U:
Electronic energy                ...   -382.13444168 Eh
Zero point energy                ...      0.12352612 Eh      77.51 kcal/mol
Thermal vibrational correction   ...      0.00974686 Eh       6.12 kcal/mol
Thermal rotational correction    ...      0.00141627 Eh       0.89 kcal/mol
Thermal translational correction ...      0.00141627 Eh       0.89 kcal/mol
-----------------------------------------------------------------------
Total thermal energy                   -381.99833615 Eh


Summary of corrections to the electronic energy:
(perhaps to be used in another calculation)
Total thermal correction                  0.01257941 Eh       7.89 kcal/mol
Non-thermal (ZPE) correction              0.12352612 Eh      77.51 kcal/mol
-----------------------------------------------------------------------
Total correction                          0.13610553 Eh      85.41 kcal/mol


--------
ENTHALPY
--------

The enthalpy is H = U + kB*T
                kB is Boltzmann's constant
Total free energy                 ...   -381.99833615 Eh 
Thermal Enthalpy correction       ...      0.00094421 Eh       0.59 kcal/mol
-----------------------------------------------------------------------
Total Enthalpy                    ...   -381.99739194 Eh


Note: Only C1 symmetry has been detected, increase convergence thresholds 
      if your molecule has a higher symmetry. Symmetry factor of 1.0 is   
      used for the rotational entropy correction. 
 

Note: Rotational entropy computed according to Herzberg 
Infrared and Raman Spectra, Chapter V,1, Van Nostrand Reinhold, 1945 
Point Group:  C1, Symmetry Number:   1  
Rotational constants in cm-1:     0.068456     0.068133     0.034867 

Vibrational entropy computed according to the QRRHO of S. Grimme
Chem.Eur.J. 2012 18 9955


-------
ENTROPY
-------

The entropy contributions are T*S = T*(S(el)+S(vib)+S(rot)+S(trans))
     S(el)   - electronic entropy
     S(vib)  - vibrational entropy
     S(rot)  - rotational entropy
     S(trans)- translational entropy
The entropies will be listed as mutliplied by the temperature to get
units of energy

Electronic entropy                ...      0.00000000 Eh      0.00 kcal/mol
Vibrational entropy               ...      0.01745052 Eh     10.95 kcal/mol
Rotational entropy                ...      0.01362936 Eh      8.55 kcal/mol
Translational entropy             ...      0.01872320 Eh     11.75 kcal/mol
-----------------------------------------------------------------------
Final entropy term                ...      0.04980308 Eh     31.25 kcal/mol

In case the symmetry of your molecule has not been determined correctly
or in case you have a reason to use a different symmetry number we print 
out the resulting rotational entropy values for sn=1,12 :
 --------------------------------------------------------
|  sn= 1 | S(rot)=       0.01362936 Eh      8.55 kcal/mol|
|  sn= 2 | S(rot)=       0.01297491 Eh      8.14 kcal/mol|
|  sn= 3 | S(rot)=       0.01259207 Eh      7.90 kcal/mol|
|  sn= 4 | S(rot)=       0.01232045 Eh      7.73 kcal/mol|
|  sn= 5 | S(rot)=       0.01210976 Eh      7.60 kcal/mol|
|  sn= 6 | S(rot)=       0.01193762 Eh      7.49 kcal/mol|
|  sn= 7 | S(rot)=       0.01179207 Eh      7.40 kcal/mol|
|  sn= 8 | S(rot)=       0.01166599 Eh      7.32 kcal/mol|
|  sn= 9 | S(rot)=       0.01155479 Eh      7.25 kcal/mol|
|  sn=10 | S(rot)=       0.01145531 Eh      7.19 kcal/mol|
|  sn=11 | S(rot)=       0.01136532 Eh      7.13 kcal/mol|
|  sn=12 | S(rot)=       0.01128316 Eh      7.08 kcal/mol|
 --------------------------------------------------------


-------------------
GIBBS FREE ENERGY
-------------------

The Gibbs free energy is G = H - T*S

Total enthalpy                    ...   -381.99739194 Eh 
Total entropy correction          ...     -0.04980308 Eh    -31.25 kcal/mol
-----------------------------------------------------------------------
Final Gibbs free energy         ...   -382.04719502 Eh

For completeness - the Gibbs free energy minus the electronic energy
G-E(el)                           ...      0.08724665 Eh     54.75 kcal/mol


Total Time for Numerical Frequencies  :      3997.885 sec

Timings for individual modules:

Sum of individual times         ...      388.159 sec (=   6.469 min)
GTO integral calculation        ...        4.622 sec (=   0.077 min)   1.2 %
SCF iterations                  ...       29.639 sec (=   0.494 min)   7.6 %
MP2 module                      ...      353.485 sec (=   5.891 min)  91.1 %
Geometry relaxation             ...        0.413 sec (=   0.007 min)   0.1 %
                             ****ORCA TERMINATED NORMALLY****
TOTAL RUN TIME: 0 days 1 hours 12 minutes 5 seconds 11 msec
