
                                 *****************
                                 * O   R   C   A *
                                 *****************

           --- An Ab Initio, DFT and Semiempirical electronic structure package ---

                  #######################################################
                  #                        -***-                        #
                  #          Department of theory and spectroscopy      #
                  #               Directorship: Frank Neese             #
                  #        Max Planck Institute fuer Kohlenforschung    #
                  #                Kaiser Wilhelm Platz 1               #
                  #                 D-45470 Muelheim/Ruhr               #
                  #                      Germany                        #
                  #                                                     #
                  #                  All rights reserved                #
                  #                        -***-                        #
                  #######################################################


                         Program Version 4.2.0 -  RELEASE  -


 With contributions from (in alphabetic order):
   Daniel Aravena         : Magnetic Suceptibility
   Michael Atanasov       : Ab Initio Ligand Field Theory (pilot matlab implementation)
   Alexander A. Auer      : GIAO ZORA, VPT2
   Ute Becker             : Parallelization
   Giovanni Bistoni       : ED, misc. LED, open-shell LED, HFLED
   Martin Brehm           : Molecular dynamics
   Dmytro Bykov           : SCF Hessian
   Vijay G. Chilkuri      : MRCI spin determinant printing, contributions to CSF-ICE
   Dipayan Datta          : RHF DLPNO-CCSD density
   Achintya Kumar Dutta   : EOM-CC, STEOM-CC
   Dmitry Ganyushin       : Spin-Orbit,Spin-Spin,Magnetic field MRCI
   Miquel Garcia          : C-PCM Hessian, Gaussian charge scheme
   Yang Guo               : DLPNO-NEVPT2, CIM, IAO-localization
   Andreas Hansen         : Spin unrestricted coupled pair/coupled cluster methods
   Benjamin Helmich-Paris : CASSCF linear response (MC-RPA)
   Lee Huntington         : MR-EOM, pCC
   Robert Izsak           : Overlap fitted RIJCOSX, COSX-SCS-MP3, EOM
   Christian Kollmar      : KDIIS, OOCD, Brueckner-CCSD(T), CCSD density
   Simone Kossmann        : Meta GGA functionals, TD-DFT gradient, OOMP2, MP2 Hessian
   Martin Krupicka        : AUTO-CI
   Lucas Lang             : DCDCAS
   Dagmar Lenk            : GEPOL surface, SMD
   Dimitrios Liakos       : Extrapolation schemes; Compound Job, initial MDCI parallelization
   Dimitrios Manganas     : Further ROCIS development; embedding schemes
   Dimitrios Pantazis     : SARC Basis sets
   Taras Petrenko         : DFT Hessian,TD-DFT gradient, ASA, ECA, R-Raman, ABS, FL, XAS/XES, NRVS
   Peter Pinski           : DLPNO-MP2, DLPNO-MP2 Gradient
   Christoph Reimann      : Effective Core Potentials
   Marius Retegan         : Local ZFS, SOC
   Christoph Riplinger    : Optimizer, TS searches, QM/MM, DLPNO-CCSD(T), (RO)-DLPNO pert. Triples
   Tobias Risthaus        : Range-separated hybrids, TD-DFT gradient, RPA, STAB
   Michael Roemelt        : Original ROCIS implementation
   Masaaki Saitow         : Open-shell DLPNO-CCSD energy and density
   Barbara Sandhoefer     : DKH picture change effects
   Avijit Sen             : IP-ROCIS
   Kantharuban Sivalingam : CASSCF convergence, NEVPT2, FIC-MRCI
   Bernardo de Souza      : ESD, SOC TD-DFT
   Georgi Stoychev        : AutoAux, RI-MP2 NMR
   Willem Van den Heuvel  : Paramagnetic NMR
   Boris Wezisla          : Elementary symmetry handling
   Frank Wennmohs         : Technical directorship


 We gratefully acknowledge several colleagues who have allowed us to
 interface, adapt or use parts of their codes:
   Stefan Grimme, W. Hujo, H. Kruse,             : VdW corrections, initial TS optimization,
                  C. Bannwarth                     DFT functionals, gCP, sTDA/sTD-DF
   Ed Valeev, F. Pavosevic, A. Kumar             : LibInt (2-el integral package), F12 methods
   Garnet Chan, S. Sharma, J. Yang, R. Olivares  : DMRG
   Ulf Ekstrom                                   : XCFun DFT Library
   Mihaly Kallay                                 : mrcc  (arbitrary order and MRCC methods)
   Andreas Klamt, Michael Diedenhofen            : otool_cosmo (COSMO solvation model)
   Jiri Pittner, Ondrej Demel                    : Mk-CCSD
   Frank Weinhold                                : gennbo (NPA and NBO analysis)
   Christopher J. Cramer and Donald G. Truhlar   : smd solvation model
   Lars Goerigk                                  : TD-DFT with DH, B97 family of functionals
   V. Asgeirsson, H. Jonsson                     : NEB implementation
   FAccTs GmbH                                   : IRC, NEB, NEB-TS, Multilevel, MM, QM/MM, CI optimization
   S Lehtola, MJT Oliveira, MAL Marques          : LibXC Library


 Your calculation uses the libint2 library for the computation of 2-el integrals
 For citations please refer to: http://libint.valeyev.net

 Your ORCA version has been built with support for libXC version: 4.2.3
 For citations please refer to: https://tddft.org/programs/libxc/

 This ORCA versions uses:
   CBLAS   interface :  Fast vector & matrix operations
   LAPACKE interface :  Fast linear algebra routines
   SCALAPACK package :  Parallel linear algebra routines


Your calculation utilizes the atom-pairwise dispersion correction
with the Becke-Johnson damping scheme (D3BJ)
Cite in your paper:
S.Grimme, S.Ehrlich, L.Goerigk, J Comput Chem, (2011), 32, 1456–1465 
S.Grimme, J.Antony, S.Ehrlich and H.Krieg, J.Chem.Phys., 132, (2010), 154104 
   

----- Orbital basis set information -----
Your calculation utilizes the basis: aug-cc-pV(T+d)Z 
             Al - Ar: T.H. Dunning, Jr., K. A. Peterson and A. K. Wilson, J. Chem. Phys.
                      114, 9244 (2001)

----- AuxC basis set information -----
Your calculation utilizes the auxiliary basis: def2-TZVP/C
  H-La, Hf-Rn : A. Hellweg, C. Hattig, S. Hofener and W. Klopper, Theor. Chem. Acc. 117, 587 (2007).
        Ce-Lu : J. Chmela and M. E. Harding, Mol. Phys. (2018).

----- AuxJK basis set information -----
Your calculation utilizes the auxiliary basis: def2/JK
   H-Ba, Hf-Rn: F. Weigend, J. Comput. Chem. 29, 167 (2008).

================================================================================
                                        WARNINGS
                       Please study these warnings very carefully!
================================================================================


WARNING: The frozen-core approximation for MP2-gradient calculations is turned on by default.

WARNING: Geometry Optimization
  ===> : Switching off AutoStart
         For restart on a previous wavefunction, please use MOREAD

WARNING: The frozen-core approximation is turned on by default for 
         the MP2 part of double-hybrid DFT.

INFO   : the flag for use of LIBINT has been found!

================================================================================
                                       INPUT FILE
================================================================================
NAME = 06_H2O_6_ring.in
|  1> #
|  2> # 06_H2O_6_ring b2-plyp/aug-cc-pvt(+d)z
|  3> #
|  4> ! rijk ri-b2plyp d3bj aug-cc-pvt(+d)z def2/jk def2-tzvp/c grid4 nofinalgrid opt xyzfile numfreq
|  5> 
|  6> *xyz 0 1
|  7> O	0	2.709181	0.148099
|  8> H	-0.122498	3.233153	0.940879
|  9> H	-0.836919	2.216592	0.034772
| 10> O	-2.346219	-1.35459	0.148099
| 11> H	-1.501165	-1.833089	0.034772
| 12> H	-2.738743	-1.722662	0.940879
| 13> O	2.34622	1.354591	-0.148098
| 14> H	2.738743	1.722663	-0.940878
| 15> H	1.501165	1.83309	-0.034772
| 16> O	0	-2.709181	-0.148098
| 17> H	0.83692	-2.216591	-0.034772
| 18> H	0.122498	-3.233152	-0.940878
| 19> O	2.34622	-1.35459	0.148099
| 20> H	2.861241	-1.510489	0.940879
| 21> H	2.338085	-0.383502	0.034772
| 22> O	-2.346219	1.354591	-0.148098
| 23> H	-2.861241	1.51049	-0.940878
| 24> H	-2.338084	0.383502	-0.034772
| 25> *
| 26> 
| 27> %maxcore 5000
| 28> 
| 29> %pal
| 30> nprocs 24
| 31> end
| 32> 
| 33> 
| 34>                          ****END OF INPUT****
================================================================================

                       *****************************
                       * Geometry Optimization Run *
                       *****************************

Geometry optimization settings:
Update method            Update   .... BFGS
Choice of coordinates    CoordSys .... Z-matrix Internals
Initial Hessian          InHess   .... Almoef's Model

Convergence Tolerances:
Energy Change            TolE     ....  5.0000e-06 Eh
Max. Gradient            TolMAXG  ....  3.0000e-04 Eh/bohr
RMS Gradient             TolRMSG  ....  1.0000e-04 Eh/bohr
Max. Displacement        TolMAXD  ....  4.0000e-03 bohr
RMS Displacement         TolRMSD  ....  2.0000e-03 bohr
Strict Convergence                ....  False
------------------------------------------------------------------------------
                        ORCA OPTIMIZATION COORDINATE SETUP
------------------------------------------------------------------------------

The optimization will be done in new redundant internal coordinates
Making redundant internal coordinates   ...  (new redundants) done
Evaluating the initial hessian          ...  (Almloef) done
Evaluating the coordinates              ...  done
Calculating the B-matrix                .... done
Calculating the G-matrix                .... done
Diagonalizing the G-matrix              .... done
The first mode is                       ....   24
The number of degrees of freedom        ....   48

    -----------------------------------------------------------------
                    Redundant Internal Coordinates


    -----------------------------------------------------------------
         Definition                    Initial Value    Approx d2E/dq
    -----------------------------------------------------------------
      1. B(H   1,O   0)                  0.9582         0.523501   
      2. B(H   2,O   0)                  0.9777         0.487202   
      3. B(H   4,O   3)                  0.9777         0.487201   
      4. B(H   5,O   3)                  0.9582         0.523501   
      5. B(H   7,O   6)                  0.9582         0.523502   
      6. B(H   8,O   6)                  0.9777         0.487200   
      7. B(H   8,O   0)                  1.7477         0.028789   
      8. B(O   9,H   4)                  1.7477         0.028789   
      9. B(H  10,O   9)                  0.9777         0.487199   
     10. B(H  11,O   9)                  0.9582         0.523502   
     11. B(O  12,H  10)                  1.7477         0.028789   
     12. B(H  13,O  12)                  0.9581         0.523502   
     13. B(H  14,O  12)                  0.9777         0.487201   
     14. B(H  14,O   6)                  1.7477         0.028789   
     15. B(O  15,H   2)                  1.7477         0.028789   
     16. B(H  16,O  15)                  0.9582         0.523501   
     17. B(H  17,O   3)                  1.7477         0.028789   
     18. B(H  17,O  15)                  0.9777         0.487199   
     19. A(H   1,O   0,H   2)          105.1878         0.318783   
     20. A(H   2,O   0,H   8)          118.0709         0.208180   
     21. A(H   1,O   0,H   8)          118.0679         0.210135   
     22. L(O   0,H   2,O  15,H   8, 1) 180.8470         0.208180   
     23. L(O   0,H   2,O  15,H   8, 2) 179.2123         0.208180   
     24. A(H   4,O   3,H  17)          118.0709         0.208180   
     25. A(H   4,O   3,H   5)          105.1878         0.318783   
     26. A(H   5,O   3,H  17)          118.0679         0.210135   
     27. L(O   3,H   4,O   9,H  17, 1) 180.8470         0.208180   
     28. L(O   3,H   4,O   9,H  17, 2) 179.2123         0.208180   
     29. A(H   7,O   6,H   8)          105.1877         0.318783   
     30. A(H   8,O   6,H  14)          118.0709         0.208180   
     31. A(H   7,O   6,H  14)          118.0679         0.210135   
     32. L(O   0,H   8,O   6,H  14, 2) 179.2125         0.208180   
     33. L(O   0,H   8,O   6,H  14, 1) 180.8470         0.208180   
     34. A(H   4,O   9,H  11)          118.0679         0.210135   
     35. A(H   4,O   9,H  10)          118.0709         0.208180   
     36. A(H  10,O   9,H  11)          105.1878         0.318783   
     37. L(O   9,H  10,O  12,H   4, 2) 180.7875         0.208180   
     38. L(O   9,H  10,O  12,H   4, 1) 180.8470         0.208180   
     39. A(H  10,O  12,H  14)          118.0709         0.208180   
     40. A(H  10,O  12,H  13)          118.0679         0.210135   
     41. A(H  13,O  12,H  14)          105.1878         0.318783   
     42. L(O   6,H  14,O  12,H  10, 2) 180.7877         0.208180   
     43. L(O   6,H  14,O  12,H  10, 1) 180.8470         0.208180   
     44. A(H   2,O  15,H  17)          118.0709         0.208180   
     45. A(H   2,O  15,H  16)          118.0679         0.210135   
     46. A(H  16,O  15,H  17)          105.1877         0.318783   
     47. L(O   3,H  17,O  15,H   2, 2) 179.2125         0.208180   
     48. L(O   3,H  17,O  15,H   2, 1) 180.8470         0.208180   
     49. D(H  14,O   6,O   0,H   1)    107.3428         0.001501   
     50. D(H  14,O   6,O   0,H   2)    -21.3696         0.001501   
     51. D(H   7,O   6,O   0,H   1)   -118.5759         0.001501   
     52. D(H   7,O   6,O   0,H   2)    112.7117         0.001501   
     53. D(H  10,O   9,O   3,H  17)     21.3696         0.001501   
     54. D(H  10,O   9,O   3,H   5)   -112.7118         0.001501   
     55. D(H  11,O   9,O   3,H   5)    118.5759         0.001501   
     56. D(H  11,O   9,O   3,H  17)   -107.3427         0.001501   
     57. D(H  13,O  12,O   9,H   4)    107.3427         0.001501   
     58. D(H  13,O  12,O   9,H  11)   -118.5759         0.001501   
     59. D(H  10,O  12,O   6,H   8)     21.3696         0.001501   
     60. D(H  10,O  12,O   6,H   7)   -107.3427         0.001501   
     61. D(H  13,O  12,O   6,H   8)   -112.7118         0.001501   
     62. D(H  14,O  12,O   9,H  11)    112.7117         0.001501   
     63. D(H  13,O  12,O   6,H   7)    118.5760         0.001501   
     64. D(H  14,O  12,O   9,H   4)    -21.3696         0.001501   
     65. D(H   2,O  15,O   3,H   5)    107.3428         0.001501   
     66. D(H  16,O  15,O   3,H   5)   -118.5758         0.001501   
     67. D(H  16,O  15,O   3,H   4)    112.7118         0.001501   
     68. D(H  17,O  15,O   0,H   8)     21.3696         0.001501   
     69. D(H  17,O  15,O   0,H   1)   -112.7118         0.001501   
     70. D(H   2,O  15,O   3,H   4)    -21.3696         0.001501   
     71. D(H  16,O  15,O   0,H   8)   -107.3427         0.001501   
     72. D(H  16,O  15,O   0,H   1)    118.5759         0.001501   
    -----------------------------------------------------------------

Number of atoms                         .... 18
Number of degrees of freedom            .... 72

         *************************************************************
         *                GEOMETRY OPTIMIZATION CYCLE   1            *
         *************************************************************
---------------------------------
CARTESIAN COORDINATES (ANGSTROEM)
---------------------------------
  O      0.000000    2.709181    0.148099
  H     -0.122498    3.233153    0.940879
  H     -0.836919    2.216592    0.034772
  O     -2.346219   -1.354590    0.148099
  H     -1.501165   -1.833089    0.034772
  H     -2.738743   -1.722662    0.940879
  O      2.346220    1.354591   -0.148098
  H      2.738743    1.722663   -0.940878
  H      1.501165    1.833090   -0.034772
  O      0.000000   -2.709181   -0.148098
  H      0.836920   -2.216591   -0.034772
  H      0.122498   -3.233152   -0.940878
  O      2.346220   -1.354590    0.148099
  H      2.861241   -1.510489    0.940879
  H      2.338085   -0.383502    0.034772
  O     -2.346219    1.354591   -0.148098
  H     -2.861241    1.510490   -0.940878
  H     -2.338084    0.383502   -0.034772

----------------------------
CARTESIAN COORDINATES (A.U.)
----------------------------
  NO LB      ZA    FRAG     MASS         X           Y           Z
   0 O     8.0000    0    15.999    0.000000    5.119610    0.279867
   1 H     1.0000    0     1.008   -0.231488    6.109774    1.778004
   2 H     1.0000    0     1.008   -1.581548    4.188752    0.065710
   3 O     8.0000    0    15.999   -4.433711   -2.559804    0.279867
   4 H     1.0000    0     1.008   -2.836791   -3.464036    0.065710
   5 H     1.0000    0     1.008   -5.175474   -3.255359    1.778004
   6 O     8.0000    0    15.999    4.433713    2.559806   -0.279865
   7 H     1.0000    0     1.008    5.175474    3.255361   -1.778002
   8 H     1.0000    0     1.008    2.836791    3.464038   -0.065710
   9 O     8.0000    0    15.999    0.000000   -5.119610   -0.279865
  10 H     1.0000    0     1.008    1.581550   -4.188750   -0.065710
  11 H     1.0000    0     1.008    0.231488   -6.109772   -1.778002
  12 O     8.0000    0    15.999    4.433713   -2.559804    0.279867
  13 H     1.0000    0     1.008    5.406962   -2.854411    1.778004
  14 H     1.0000    0     1.008    4.418340   -0.724714    0.065710
  15 O     8.0000    0    15.999   -4.433711    2.559806   -0.279865
  16 H     1.0000    0     1.008   -5.406962    2.854412   -1.778002
  17 H     1.0000    0     1.008   -4.418338    0.724714   -0.065710

--------------------------------
INTERNAL COORDINATES (ANGSTROEM)
--------------------------------
 O      0   0   0     0.000000000000     0.00000000     0.00000000
 H      1   0   0     0.958150585862     0.00000000     0.00000000
 H      1   2   0     0.977711790054   105.18781736     0.00000000
 O      3   1   2     3.878681525474   142.52143282   247.82102299
 H      4   3   1     0.977711902784    96.36667252   339.89067784
 H      4   3   1     0.958150414163   122.49877551    92.44971867
 O      1   2   3     2.725324754834   118.15109370   225.39579020
 H      7   1   2     0.958150004495   104.57634301   241.42412740
 H      7   1   2     0.977712651193     0.63329954    76.51804352
 O      5   4   3     1.747705634994   179.01235653   141.32391584
 H     10   5   4     0.977713033960   118.07085768   232.04877984
 H     10   5   4     0.958150039005   118.06791005   103.67031070
 O     11  10   5     1.747705357502   179.01239509   210.64869987
 H     13  11  10     0.958149913658   118.06793374   256.33548560
 H     13  11  10     0.977712171806   118.07087130   127.95692155
 O      3   1   2     1.747705252868   179.01234488    15.13405571
 H     16   3   1     0.958150451174   118.06794621   103.66965614
 H     16   3   1     0.977713049121   118.07088973   232.04815538

---------------------------
INTERNAL COORDINATES (A.U.)
---------------------------
 O      0   0   0     0.000000000000     0.00000000     0.00000000
 H      1   0   0     1.810642202336     0.00000000     0.00000000
 H      1   2   0     1.847607521108   105.18781736     0.00000000
 O      3   1   2     7.329645843846   142.52143282   247.82102299
 H      4   3   1     1.847607734137    96.36667252   339.89067784
 H      4   3   1     1.810641877871   122.49877551    92.44971867
 O      1   2   3     5.150117412632   118.15109370   225.39579020
 H      7   1   2     1.810641103710   104.57634301   241.42412740
 H      7   1   2     1.847609148424     0.63329954    76.51804352
 O      5   4   3     3.302685012849   179.01235653   141.32391584
 H     10   5   4     1.847609871750   118.07085768   232.04877984
 H     10   5   4     1.810641168925   118.06791005   103.67031070
 O     11  10   5     3.302684488466   179.01239509   210.64869987
 H     13  11  10     1.810640932053   118.06793374   256.33548560
 H     13  11  10     1.847608242515   118.07087130   127.95692155
 O      3   1   2     3.302684290735   179.01234488    15.13405571
 H     16   3   1     1.810641947812   118.06794621   103.66965614
 H     16   3   1     1.847609900400   118.07088973   232.04815538

---------------------
BASIS SET INFORMATION
---------------------
There are 2 groups of distinct atoms

 Group   1 Type O   : 19s6p3d2f contracted to 5s4p3d2f pattern {88111/3111/111/11}
 Group   2 Type H   : 6s3p2d contracted to 4s3p2d pattern {3111/111/11}

Atom   0O    basis set group =>   1
Atom   1H    basis set group =>   2
Atom   2H    basis set group =>   2
Atom   3O    basis set group =>   1
Atom   4H    basis set group =>   2
Atom   5H    basis set group =>   2
Atom   6O    basis set group =>   1
Atom   7H    basis set group =>   2
Atom   8H    basis set group =>   2
Atom   9O    basis set group =>   1
Atom  10H    basis set group =>   2
Atom  11H    basis set group =>   2
Atom  12O    basis set group =>   1
Atom  13H    basis set group =>   2
Atom  14H    basis set group =>   2
Atom  15O    basis set group =>   1
Atom  16H    basis set group =>   2
Atom  17H    basis set group =>   2
---------------------------------
AUXILIARY/C BASIS SET INFORMATION
---------------------------------
There are 2 groups of distinct atoms

 Group   1 Type O   : 8s6p5d3f1g contracted to 8s6p4d3f1g pattern {11111111/111111/2111/111/1}
 Group   2 Type H   : 4s3p2d contracted to 4s2p1d pattern {1111/21/2}

Atom   0O    basis set group =>   1
Atom   1H    basis set group =>   2
Atom   2H    basis set group =>   2
Atom   3O    basis set group =>   1
Atom   4H    basis set group =>   2
Atom   5H    basis set group =>   2
Atom   6O    basis set group =>   1
Atom   7H    basis set group =>   2
Atom   8H    basis set group =>   2
Atom   9O    basis set group =>   1
Atom  10H    basis set group =>   2
Atom  11H    basis set group =>   2
Atom  12O    basis set group =>   1
Atom  13H    basis set group =>   2
Atom  14H    basis set group =>   2
Atom  15O    basis set group =>   1
Atom  16H    basis set group =>   2
Atom  17H    basis set group =>   2
----------------------------------
AUXILIARY/JK BASIS SET INFORMATION
----------------------------------
There are 2 groups of distinct atoms

 Group   1 Type O   : 14s10p6d2f1g contracted to 10s8p4d2f1g pattern {5111111111/31111111/3111/11/1}
 Group   2 Type H   : 4s2p2d contracted to 2s2p2d pattern {31/11/11}

Atom   0O    basis set group =>   1
Atom   1H    basis set group =>   2
Atom   2H    basis set group =>   2
Atom   3O    basis set group =>   1
Atom   4H    basis set group =>   2
Atom   5H    basis set group =>   2
Atom   6O    basis set group =>   1
Atom   7H    basis set group =>   2
Atom   8H    basis set group =>   2
Atom   9O    basis set group =>   1
Atom  10H    basis set group =>   2
Atom  11H    basis set group =>   2
Atom  12O    basis set group =>   1
Atom  13H    basis set group =>   2
Atom  14H    basis set group =>   2
Atom  15O    basis set group =>   1
Atom  16H    basis set group =>   2
Atom  17H    basis set group =>   2


           ************************************************************
           *        Program running with 24 parallel MPI-processes    *
           *              working on a common directory               *
           ************************************************************
------------------------------------------------------------------------------
                           ORCA GTO INTEGRAL CALCULATION
                           -- RI-GTO INTEGRALS CHOSEN --
------------------------------------------------------------------------------

                         BASIS SET STATISTICS AND STARTUP INFO

Gaussian basis set:
 # of primitive gaussian shells          ...  312
 # of primitive gaussian functions       ...  696
 # of contracted shells                  ...  192
 # of contracted basis functions         ...  552
 Highest angular momentum                ...    3
 Maximum contraction depth               ...    8
Auxiliary gaussian basis set:
 # of primitive gaussian shells          ...  294
 # of primitive gaussian functions       ...  822
 # of contracted shells                  ...  222
 # of contracted aux-basis functions     ...  678
 Highest angular momentum                ...    4
 Maximum contraction depth               ...    5
Ratio of auxiliary to basis functions    ...  1.23
Integral package used                  ... LIBINT
 One Electron integrals                  ... done
 Ordering auxiliary basis shells         ... done
 Integral threshhold             Thresh  ...  2.500e-11
 Primitive cut-off               TCut    ...  2.500e-12
 Pre-screening matrix                    ... done
 Shell pair data                         ... 
 Ordering of the shell pairs             ... done (   0.003 sec) 16451 of 18528 pairs
 Determination of significant pairs      ... done (   0.000 sec)
 Creation of shell pair data             ... done (   0.002 sec)
 Storage of shell pair data              ... done (   0.053 sec)
 Shell pair data done in (   0.058 sec)
 Computing two index integrals           ... done
 Cholesky decomposition of the V-matrix  ... done


Timings:
 Total evaluation time                   ...   0.519 sec (  0.009 min)
 One electron matrix time                ...   0.146 sec (  0.002 min) = 28.1%
 Schwartz matrix evaluation time         ...   0.205 sec (  0.003 min) = 39.6%
 Two index repulsion integral time       ...   0.011 sec (  0.000 min) =  2.2%
 Cholesky decomposition of V             ...   0.081 sec (  0.001 min) = 15.6%
 Three index repulsion integral time     ...   0.000 sec (  0.000 min) =  0.0%



           ************************************************************
           *        Program running with 24 parallel MPI-processes    *
           *              working on a common directory               *
           ************************************************************
-------------------------------------------------------------------------------
                                 ORCA SCF
-------------------------------------------------------------------------------

------------
SCF SETTINGS
------------
Hamiltonian:
 Density Functional     Method          .... DFT(GTOs)
 Exchange Functional    Exchange        .... B88
   X-Alpha parameter    XAlpha          ....  0.666667
   Becke's b parameter  XBeta           ....  0.004200
 Correlation Functional Correlation     .... LYP
 LDA part of GGA corr.  LDAOpt          .... VWN-3
 Gradients option       PostSCFGGA      .... off
 Hybrid DFT is turned on
   Fraction HF Exchange ScalHFX         ....  0.530000
   Scaling of DF-GGA-X  ScalDFX         ....  0.470000
   Scaling of DF-GGA-C  ScalDFC         ....  0.730000
   Scaling of DF-LDA-C  ScalLDAC        ....  0.730000
   Perturbative correction              ....  0.270000
   Density functional embedding theory  .... OFF
 RI-approximation to the Coulomb term is turned on
   Number of auxiliary basis functions  .... 678
   RI-JK (J+K treated both via RI)      .... on


General Settings:
 Integral files         IntName         .... 06_H2O_6_ring
 Hartree-Fock type      HFTyp           .... RHF
 Total Charge           Charge          ....    0
 Multiplicity           Mult            ....    1
 Number of Electrons    NEL             ....   60
 Basis Dimension        Dim             ....  552
 Nuclear Repulsion      ENuc            ....    268.3173414251 Eh

Convergence Acceleration:
 DIIS                   CNVDIIS         .... on
   Start iteration      DIISMaxIt       ....    12
   Startup error        DIISStart       ....  0.200000
   # of expansion vecs  DIISMaxEq       ....     5
   Bias factor          DIISBfac        ....   1.050
   Max. coefficient     DIISMaxC        ....  10.000
 Newton-Raphson         CNVNR           .... off
 SOSCF                  CNVSOSCF        .... on
   Start iteration      SOSCFMaxIt      ....   150
   Startup grad/error   SOSCFStart      ....  0.003300
 Level Shifting         CNVShift        .... on
   Level shift para.    LevelShift      ....    0.2500
   Turn off err/grad.   ShiftErr        ....    0.0010
 Zerner damping         CNVZerner       .... off
 Static damping         CNVDamp         .... on
   Fraction old density DampFac         ....    0.7000
   Max. Damping (<1)    DampMax         ....    0.9800
   Min. Damping (>=0)   DampMin         ....    0.0000
   Turn off err/grad.   DampErr         ....    0.1000
 Fernandez-Rico         CNVRico         .... off

SCF Procedure:
 Maximum # iterations   MaxIter         ....   125
 SCF integral mode      SCFMode         .... Direct
   Integral package                     .... LIBINT
 Reset frequency        DirectResetFreq ....    20
 Integral Threshold     Thresh          ....  2.500e-11 Eh
 Primitive CutOff       TCut            ....  2.500e-12 Eh

Convergence Tolerance:
 Convergence Check Mode ConvCheckMode   .... Total+1el-Energy
 Convergence forced     ConvForced      .... 0
 Energy Change          TolE            ....  1.000e-08 Eh
 1-El. energy change                    ....  1.000e-05 Eh
 Orbital Gradient       TolG            ....  1.000e-05
 Orbital Rotation angle TolX            ....  1.000e-05
 DIIS Error             TolErr          ....  5.000e-07


Diagonalization of the overlap matrix:
Smallest eigenvalue                        ... 1.234e-04
Time for diagonalization                   ...    0.043 sec
Threshold for overlap eigenvalues          ... 1.000e-08
Number of eigenvalues below threshold      ... 0
Time for construction of square roots      ...    0.048 sec
Total time needed                          ...    0.093 sec

-------------------
DFT GRID GENERATION
-------------------

General Integration Accuracy     IntAcc      ...  4.670
Radial Grid Type                 RadialGrid  ... Gauss-Chebyshev
Angular Grid (max. acc.)         AngularGrid ... Lebedev-302
Angular grid pruning method      GridPruning ... 3 (G Style)
Weight generation scheme         WeightScheme... Becke
Basis function cutoff            BFCut       ...    1.0000e-11
Integration weight cutoff        WCut        ...    1.0000e-14
Grids for H and He will be reduced by one unit

# of grid points (after initial pruning)     ...  78000 (   0.0 sec)
# of grid points (after weights+screening)   ...  72996 (   0.0 sec)
nearest neighbour list constructed           ...    0.0 sec
Grid point re-assignment to atoms done       ...    0.0 sec
Grid point division into batches done        ...    0.2 sec
Reduced shell lists constructed in    0.3 sec

Total number of grid points                  ...    72996
Total number of batches                      ...     1152
Average number of points per batch           ...       63
Average number of grid points per atom       ...     4055
Average number of shells per batch           ...   118.88 (61.92%)
Average number of basis functions per batch  ...   321.94 (58.32%)
Average number of large shells per batch     ...    92.53 (77.84%)
Average number of large basis fcns per batch ...   241.84 (75.12%)
Average number of aux-shells per batch       ...   118.88 (53.55%)
Average number of aux functions per batch    ...   321.94 (47.48%)
Maximum spatial batch extension              ...   8.81, 11.76,  8.41 au
Average spatial batch extension              ...   0.07,  0.08,  0.06 au

Time for grid setup =    0.388 sec

------------------------------
INITIAL GUESS: MODEL POTENTIAL
------------------------------
Loading Hartree-Fock densities                     ... done
Calculating cut-offs                               ... done
Setting up the integral package                    ... done
Initializing the effective Hamiltonian             ... done
Starting the Coulomb interaction                   ... done (   0.0 sec)
Reading the grid                                   ... done
Mapping shells                                     ... done
Starting the XC term evaluation                    ... done (   0.1 sec)
  promolecular density results
     # of electrons  =     59.994135459
     EX              =    -52.751420143
     EC              =     -0.675010366
     EX+EC           =    -53.426430509
Transforming the Hamiltonian                       ... done (   0.0 sec)
Diagonalizing the Hamiltonian                      ... done (   0.0 sec)
Back transforming the eigenvectors                 ... done (   0.0 sec)
Now organizing SCF variables                       ... done
                      ------------------
                      INITIAL GUESS DONE (   0.7 sec)
                      ------------------
--------------
SCF ITERATIONS
--------------
ITER       Energy         Delta-E        Max-DP      RMS-DP      [F,P]     Damp
  0   -457.5524121793   0.000000000000 0.04032703  0.00057654  0.3455207 0.7000
  1   -457.2172030048   0.335209174556 0.03065673  0.00053512  0.2511608 0.7000
                               ***Turning on DIIS***
  2   -457.3787665487  -0.161563543980 0.03778766  0.00080813  0.0961248 0.0000
  3   -457.8751021255  -0.496335576789 0.00908745  0.00013943  0.1829925 0.7000
  4   -458.0310907686  -0.155988643030 0.00701458  0.00013399  0.1643291 0.7000
  5   -458.0634859154  -0.032395146823 0.00528255  0.00010982  0.1310047 0.7000
  6   -458.0694158158  -0.005929900461 0.00439852  0.00008964  0.1021842 0.7000
  7   -458.0695519176  -0.000136101800 0.02016283  0.00035275  0.0791219 0.0000
  8   -458.0333052510   0.036246666678 0.00183893  0.00002638  0.0069049 0.0000
                      *** Initiating the SOSCF procedure ***
                           *** Shutting down DIIS ***
                      *** Re-Reading the Fockian *** 
                      *** Removing any level shift *** 
ITER      Energy       Delta-E        Grad      Rot      Max-DP    RMS-DP
  9   -458.03352102  -0.0002157668  0.000279  0.000279  0.000373  0.000008
 10   -458.03354065  -0.0000196370  0.000211  0.000210  0.000337  0.000007
 11   -458.03354067  -0.0000000110  0.000188  0.000097  0.000195  0.000003
 12   -458.03354308  -0.0000024141  0.000006  0.000004  0.000011  0.000000
                  ***Gradient check signals convergence***
              ***Rediagonalizing the Fockian in SOSCF/NRSCF***

               *****************************************************
               *                     SUCCESS                       *
               *           SCF CONVERGED AFTER  13 CYCLES          *
               *****************************************************


----------------
TOTAL SCF ENERGY
----------------

Total Energy       :         -458.03354308 Eh          -12463.72635 eV

Components:
Nuclear Repulsion  :          268.31734143 Eh            7301.28605 eV
Electronic Energy  :         -726.35088451 Eh          -19765.01240 eV
One Electron Energy:        -1165.15874023 Eh          -31705.58120 eV
Two Electron Energy:          438.80785573 Eh           11940.56880 eV

Virial components:
Potential Energy   :         -914.27566378 Eh          -24878.70562 eV
Kinetic Energy     :          456.24212070 Eh           12414.97927 eV
Virial Ratio       :            2.00392647


DFT components:
N(Alpha)           :       30.000002358936 electrons
N(Beta)            :       30.000002358936 electrons
N(Total)           :       60.000004717871 electrons
E(X)               :      -25.339180375186 Eh       
E(C)               :       -1.516098366733 Eh       
E(XC)              :      -26.855278741919 Eh       
DFET-embed. en.    :        0.000000000000 Eh       

---------------
SCF CONVERGENCE
---------------

  Last Energy change         ...   -1.1147e-09  Tolerance :   1.0000e-08
  Last MAX-Density change    ...    3.5639e-06  Tolerance :   1.0000e-07
  Last RMS-Density change    ...    5.6652e-08  Tolerance :   5.0000e-09
  Last Orbital Gradient      ...    6.8603e-07  Tolerance :   1.0000e-05
  Last Orbital Rotation      ...    1.3882e-06  Tolerance :   1.0000e-05

             **** THE GBW FILE WAS UPDATED (06_H2O_6_ring.gbw) ****
             **** DENSITY FILE WAS UPDATED (06_H2O_6_ring.scfp) ****
             **** ENERGY FILE WAS UPDATED (06_H2O_6_ring.en.tmp) ****
             **** THE GBW FILE WAS UPDATED (06_H2O_6_ring.gbw) ****
             **** DENSITY FILE WAS UPDATED (06_H2O_6_ring.scfp) ****
----------------
ORBITAL ENERGIES
----------------

  NO   OCC          E(Eh)            E(eV) 
   0   2.0000     -19.723662      -536.7081 
   1   2.0000     -19.723659      -536.7080 
   2   2.0000     -19.723657      -536.7080 
   3   2.0000     -19.723651      -536.7078 
   4   2.0000     -19.723649      -536.7078 
   5   2.0000     -19.723645      -536.7077 
   6   2.0000      -1.162761       -31.6403 
   7   2.0000      -1.156016       -31.4568 
   8   2.0000      -1.156015       -31.4568 
   9   2.0000      -1.141881       -31.0722 
  10   2.0000      -1.141880       -31.0721 
  11   2.0000      -1.134420       -30.8691 
  12   2.0000      -0.611563       -16.6415 
  13   2.0000      -0.610332       -16.6080 
  14   2.0000      -0.609944       -16.5974 
  15   2.0000      -0.609943       -16.5974 
  16   2.0000      -0.609367       -16.5817 
  17   2.0000      -0.609366       -16.5817 
  18   2.0000      -0.517654       -14.0861 
  19   2.0000      -0.497518       -13.5382 
  20   2.0000      -0.497517       -13.5381 
  21   2.0000      -0.453632       -12.3440 
  22   2.0000      -0.453630       -12.3439 
  23   2.0000      -0.431593       -11.7442 
  24   2.0000      -0.396308       -10.7841 
  25   2.0000      -0.396308       -10.7841 
  26   2.0000      -0.395880       -10.7724 
  27   2.0000      -0.395878       -10.7724 
  28   2.0000      -0.394863       -10.7448 
  29   2.0000      -0.394078       -10.7234 
  30   0.0000       0.000472         0.0128 
  31   0.0000       0.016482         0.4485 
  32   0.0000       0.016487         0.4486 
  33   0.0000       0.027618         0.7515 
  34   0.0000       0.033640         0.9154 
  35   0.0000       0.033645         0.9155 
  36   0.0000       0.056026         1.5246 
  37   0.0000       0.056041         1.5250 
  38   0.0000       0.061032         1.6608 
  39   0.0000       0.067463         1.8358 
  40   0.0000       0.078115         2.1256 
  41   0.0000       0.078120         2.1258 
  42   0.0000       0.102673         2.7939 
  43   0.0000       0.115865         3.1528 
  44   0.0000       0.115871         3.1530 
  45   0.0000       0.118332         3.2200 
  46   0.0000       0.131881         3.5887 
  47   0.0000       0.131910         3.5895 
  48   0.0000       0.132026         3.5926 
  49   0.0000       0.141321         3.8455 
  50   0.0000       0.150603         4.0981 
  51   0.0000       0.150704         4.1009 
  52   0.0000       0.159332         4.3357 
  53   0.0000       0.159431         4.3383 
  54   0.0000       0.172325         4.6892 
  55   0.0000       0.173864         4.7311 
  56   0.0000       0.179189         4.8760 
  57   0.0000       0.179267         4.8781 
  58   0.0000       0.200966         5.4686 
  59   0.0000       0.202398         5.5075 
  60   0.0000       0.202478         5.5097 
  61   0.0000       0.208222         5.6660 
  62   0.0000       0.208264         5.6672 
  63   0.0000       0.212628         5.7859 
  64   0.0000       0.223138         6.0719 
  65   0.0000       0.223149         6.0722 
  66   0.0000       0.235196         6.4000 
  67   0.0000       0.243038         6.6134 
  68   0.0000       0.243088         6.6148 
  69   0.0000       0.250008         6.8031 
  70   0.0000       0.250043         6.8040 
  71   0.0000       0.252435         6.8691 
  72   0.0000       0.277318         7.5462 
  73   0.0000       0.287654         7.8275 
  74   0.0000       0.311662         8.4807 
  75   0.0000       0.311687         8.4814 
  76   0.0000       0.325888         8.8679 
  77   0.0000       0.333418         9.0728 
  78   0.0000       0.334575         9.1042 
  79   0.0000       0.334610         9.1052 
  80   0.0000       0.334736         9.1086 
  81   0.0000       0.334807         9.1106 
  82   0.0000       0.343556         9.3486 
  83   0.0000       0.359941         9.7945 
  84   0.0000       0.359949         9.7947 
  85   0.0000       0.367652        10.0043 
  86   0.0000       0.367790        10.0081 
  87   0.0000       0.372930        10.1479 
  88   0.0000       0.373009        10.1501 
  89   0.0000       0.378598        10.3022 
  90   0.0000       0.385647        10.4940 
  91   0.0000       0.385760        10.4971 
  92   0.0000       0.392761        10.6876 
  93   0.0000       0.393565        10.7095 
  94   0.0000       0.395880        10.7725 
  95   0.0000       0.395940        10.7741 
  96   0.0000       0.402978        10.9656 
  97   0.0000       0.415750        11.3131 
  98   0.0000       0.420647        11.4464 
  99   0.0000       0.420724        11.4485 
 100   0.0000       0.423011        11.5107 
 101   0.0000       0.423081        11.5126 
 102   0.0000       0.439443        11.9578 
 103   0.0000       0.439511        11.9597 
 104   0.0000       0.448876        12.2145 
 105   0.0000       0.448950        12.2165 
 106   0.0000       0.452382        12.3099 
 107   0.0000       0.453689        12.3455 
 108   0.0000       0.520536        14.1645 
 109   0.0000       0.520700        14.1690 
 110   0.0000       0.531517        14.4633 
 111   0.0000       0.532050        14.4778 
 112   0.0000       0.532163        14.4809 
 113   0.0000       0.534328        14.5398 
 114   0.0000       0.544466        14.8157 
 115   0.0000       0.589826        16.0500 
 116   0.0000       0.598725        16.2921 
 117   0.0000       0.598796        16.2941 
 118   0.0000       0.610992        16.6259 
 119   0.0000       0.611051        16.6275 
 120   0.0000       0.636582        17.3223 
 121   0.0000       0.643952        17.5228 
 122   0.0000       0.647560        17.6210 
 123   0.0000       0.647608        17.6223 
 124   0.0000       0.682970        18.5846 
 125   0.0000       0.683206        18.5910 
 126   0.0000       0.686771        18.6880 
 127   0.0000       0.696513        18.9531 
 128   0.0000       0.696559        18.9543 
 129   0.0000       0.708807        19.2876 
 130   0.0000       0.729703        19.8562 
 131   0.0000       0.729874        19.8609 
 132   0.0000       0.743366        20.2280 
 133   0.0000       0.743425        20.2296 
 134   0.0000       0.743632        20.2353 
 135   0.0000       0.748109        20.3571 
 136   0.0000       0.748233        20.3605 
 137   0.0000       0.759611        20.6701 
 138   0.0000       0.772909        21.0319 
 139   0.0000       0.794793        21.6274 
 140   0.0000       0.794870        21.6295 
 141   0.0000       0.810539        22.0559 
 142   0.0000       0.815291        22.1852 
 143   0.0000       0.815387        22.1878 
 144   0.0000       0.832322        22.6486 
 145   0.0000       0.833222        22.6731 
 146   0.0000       0.833375        22.6773 
 147   0.0000       0.852202        23.1896 
 148   0.0000       0.852308        23.1925 
 149   0.0000       0.868149        23.6235 
 150   0.0000       0.871862        23.7246 
 151   0.0000       0.871907        23.7258 
 152   0.0000       0.888518        24.1778 
 153   0.0000       0.893414        24.3110 
 154   0.0000       0.893526        24.3141 
 155   0.0000       0.898425        24.4474 
 156   0.0000       0.913395        24.8547 
 157   0.0000       0.913600        24.8603 
 158   0.0000       0.913637        24.8613 
 159   0.0000       0.925653        25.1883 
 160   0.0000       0.925704        25.1897 
 161   0.0000       0.939114        25.5546 
 162   0.0000       0.944881        25.7115 
 163   0.0000       0.949608        25.8402 
 164   0.0000       0.949653        25.8414 
 165   0.0000       0.955153        25.9910 
 166   0.0000       0.955232        25.9932 
 167   0.0000       0.971229        26.4285 
 168   0.0000       0.971321        26.4310 
 169   0.0000       0.971582        26.4381 
 170   0.0000       0.971755        26.4428 
 171   0.0000       0.983685        26.7674 
 172   0.0000       0.983698        26.7678 
 173   0.0000       0.989541        26.9268 
 174   0.0000       0.989658        26.9300 
 175   0.0000       0.995580        27.0911 
 176   0.0000       1.005606        27.3639 
 177   0.0000       1.043963        28.4077 
 178   0.0000       1.044064        28.4104 
 179   0.0000       1.048663        28.5356 
 180   0.0000       1.051288        28.6070 
 181   0.0000       1.074216        29.2309 
 182   0.0000       1.095632        29.8137 
 183   0.0000       1.095663        29.8145 
 184   0.0000       1.108350        30.1597 
 185   0.0000       1.108424        30.1617 
 186   0.0000       1.116197        30.3733 
 187   0.0000       1.129225        30.7278 
 188   0.0000       1.132648        30.8209 
 189   0.0000       1.156386        31.4669 
 190   0.0000       1.156505        31.4701 
 191   0.0000       1.162343        31.6290 
 192   0.0000       1.162395        31.6304 
 193   0.0000       1.171980        31.8912 
 194   0.0000       1.178186        32.0601 
 195   0.0000       1.178225        32.0611 
 196   0.0000       1.189347        32.3638 
 197   0.0000       1.189429        32.3660 
 198   0.0000       1.195049        32.5189 
 199   0.0000       1.206323        32.8257 
 200   0.0000       1.233473        33.5645 
 201   0.0000       1.233654        33.5694 
 202   0.0000       1.245333        33.8872 
 203   0.0000       1.245441        33.8902 
 204   0.0000       1.289658        35.0934 
 205   0.0000       1.292959        35.1832 
 206   0.0000       1.294031        35.2124 
 207   0.0000       1.294107        35.2144 
 208   0.0000       1.316315        35.8188 
 209   0.0000       1.336685        36.3730 
 210   0.0000       1.338959        36.4349 
 211   0.0000       1.339031        36.4369 
 212   0.0000       1.340761        36.4840 
 213   0.0000       1.340795        36.4849 
 214   0.0000       1.380178        37.5565 
 215   0.0000       1.380274        37.5592 
 216   0.0000       1.389531        37.8111 
 217   0.0000       1.392603        37.8946 
 218   0.0000       1.392657        37.8961 
 219   0.0000       1.439790        39.1787 
 220   0.0000       1.439849        39.1803 
 221   0.0000       1.445630        39.3376 
 222   0.0000       1.455384        39.6030 
 223   0.0000       1.456694        39.6387 
 224   0.0000       1.456736        39.6398 
 225   0.0000       1.479197        40.2510 
 226   0.0000       1.490653        40.5627 
 227   0.0000       1.490709        40.5643 
 228   0.0000       1.498061        40.7643 
 229   0.0000       1.522288        41.4236 
 230   0.0000       1.528235        41.5854 
 231   0.0000       1.528312        41.5875 
 232   0.0000       1.543010        41.9874 
 233   0.0000       1.543089        41.9896 
 234   0.0000       1.621817        44.1319 
 235   0.0000       1.621853        44.1329 
 236   0.0000       1.636563        44.5331 
 237   0.0000       1.637501        44.5587 
 238   0.0000       1.637618        44.5618 
 239   0.0000       1.667816        45.3836 
 240   0.0000       1.693490        46.0822 
 241   0.0000       1.693541        46.0836 
 242   0.0000       1.694911        46.1209 
 243   0.0000       1.695052        46.1247 
 244   0.0000       1.709876        46.5281 
 245   0.0000       1.734239        47.1910 
 246   0.0000       1.748126        47.5689 
 247   0.0000       1.748270        47.5728 
 248   0.0000       1.752079        47.6765 
 249   0.0000       1.752123        47.6777 
 250   0.0000       1.769463        48.1495 
 251   0.0000       1.788264        48.6611 
 252   0.0000       1.801072        49.0097 
 253   0.0000       1.801119        49.0109 
 254   0.0000       1.843098        50.1532 
 255   0.0000       1.851499        50.3818 
 256   0.0000       1.851561        50.3835 
 257   0.0000       1.862884        50.6917 
 258   0.0000       1.904354        51.8201 
 259   0.0000       1.924272        52.3621 
 260   0.0000       1.924324        52.3635 
 261   0.0000       1.935099        52.6567 
 262   0.0000       1.935205        52.6596 
 263   0.0000       1.946065        52.9551 
 264   0.0000       2.007029        54.6140 
 265   0.0000       2.007043        54.6144 
 266   0.0000       2.045576        55.6630 
 267   0.0000       2.046101        55.6772 
 268   0.0000       2.046115        55.6776 
 269   0.0000       2.102422        57.2098 
 270   0.0000       2.167648        58.9847 
 271   0.0000       2.210264        60.1443 
 272   0.0000       2.210278        60.1447 
 273   0.0000       2.222087        60.4661 
 274   0.0000       2.222132        60.4673 
 275   0.0000       2.238391        60.9097 
 276   0.0000       2.290066        62.3159 
 277   0.0000       2.290091        62.3165 
 278   0.0000       2.294297        62.4310 
 279   0.0000       2.306970        62.7758 
 280   0.0000       2.325239        63.2730 
 281   0.0000       2.342701        63.7481 
 282   0.0000       2.353692        64.0472 
 283   0.0000       2.353762        64.0491 
 284   0.0000       2.355391        64.0934 
 285   0.0000       2.355411        64.0940 
 286   0.0000       2.361459        64.2586 
 287   0.0000       2.394479        65.1571 
 288   0.0000       2.394513        65.1580 
 289   0.0000       2.407242        65.5044 
 290   0.0000       2.435378        66.2700 
 291   0.0000       2.435404        66.2707 
 292   0.0000       2.436702        66.3060 
 293   0.0000       2.436773        66.3080 
 294   0.0000       2.457326        66.8672 
 295   0.0000       2.463195        67.0270 
 296   0.0000       2.463265        67.0289 
 297   0.0000       2.471608        67.2559 
 298   0.0000       2.499956        68.0273 
 299   0.0000       2.521969        68.6263 
 300   0.0000       2.523226        68.6605 
 301   0.0000       2.523299        68.6624 
 302   0.0000       2.533213        68.9322 
 303   0.0000       2.533290        68.9343 
 304   0.0000       2.559759        69.6546 
 305   0.0000       2.559858        69.6573 
 306   0.0000       2.569564        69.9214 
 307   0.0000       2.603627        70.8483 
 308   0.0000       2.603674        70.8496 
 309   0.0000       2.639123        71.8142 
 310   0.0000       2.647097        72.0312 
 311   0.0000       2.647158        72.0328 
 312   0.0000       2.647606        72.0450 
 313   0.0000       2.663332        72.4729 
 314   0.0000       2.663364        72.4738 
 315   0.0000       2.703389        73.5630 
 316   0.0000       2.713011        73.8248 
 317   0.0000       2.718126        73.9640 
 318   0.0000       2.718176        73.9653 
 319   0.0000       2.727240        74.2120 
 320   0.0000       2.727320        74.2142 
 321   0.0000       2.764608        75.2288 
 322   0.0000       2.790507        75.9335 
 323   0.0000       2.790614        75.9365 
 324   0.0000       2.813601        76.5620 
 325   0.0000       2.815571        76.6156 
 326   0.0000       2.815637        76.6174 
 327   0.0000       2.873360        78.1881 
 328   0.0000       2.873411        78.1895 
 329   0.0000       2.877832        78.3098 
 330   0.0000       2.877885        78.3112 
 331   0.0000       2.881139        78.3998 
 332   0.0000       2.909594        79.1741 
 333   0.0000       2.954588        80.3984 
 334   0.0000       2.954614        80.3991 
 335   0.0000       2.968800        80.7851 
 336   0.0000       2.976723        81.0008 
 337   0.0000       2.984462        81.2113 
 338   0.0000       2.984510        81.2127 
 339   0.0000       3.005626        81.7872 
 340   0.0000       3.005654        81.7880 
 341   0.0000       3.011362        81.9433 
 342   0.0000       3.064502        83.3893 
 343   0.0000       3.064584        83.3916 
 344   0.0000       3.130879        85.1955 
 345   0.0000       3.130908        85.1963 
 346   0.0000       3.152474        85.7832 
 347   0.0000       3.188791        86.7714 
 348   0.0000       3.664617        99.7193 
 349   0.0000       3.664625        99.7195 
 350   0.0000       3.668234        99.8177 
 351   0.0000       3.673504        99.9611 
 352   0.0000       3.686112       100.3042 
 353   0.0000       3.686120       100.3044 
 354   0.0000       3.952275       107.5469 
 355   0.0000       3.952290       107.5473 
 356   0.0000       3.956467       107.6609 
 357   0.0000       3.956511       107.6621 
 358   0.0000       3.965897       107.9175 
 359   0.0000       3.980352       108.3109 
 360   0.0000       3.991095       108.6032 
 361   0.0000       3.994662       108.7003 
 362   0.0000       3.994673       108.7006 
 363   0.0000       4.004586       108.9703 
 364   0.0000       4.039848       109.9298 
 365   0.0000       4.039878       109.9307 
 366   0.0000       4.064326       110.5959 
 367   0.0000       4.079761       111.0159 
 368   0.0000       4.079773       111.0163 
 369   0.0000       4.085135       111.1622 
 370   0.0000       4.100704       111.5858 
 371   0.0000       4.100730       111.5865 
 372   0.0000       4.129901       112.3803 
 373   0.0000       4.129930       112.3811 
 374   0.0000       4.133240       112.4712 
 375   0.0000       4.133265       112.4719 
 376   0.0000       4.135318       112.5277 
 377   0.0000       4.153380       113.0192 
 378   0.0000       4.176513       113.6487 
 379   0.0000       4.213136       114.6453 
 380   0.0000       4.213172       114.6462 
 381   0.0000       4.219592       114.8209 
 382   0.0000       4.219613       114.8215 
 383   0.0000       4.302488       117.0766 
 384   0.0000       4.303123       117.0939 
 385   0.0000       4.303136       117.0943 
 386   0.0000       4.306192       117.1774 
 387   0.0000       4.329363       117.8080 
 388   0.0000       4.353459       118.4636 
 389   0.0000       4.353482       118.4643 
 390   0.0000       4.374701       119.0417 
 391   0.0000       4.392757       119.5330 
 392   0.0000       4.402633       119.8017 
 393   0.0000       4.402691       119.8033 
 394   0.0000       4.412929       120.0819 
 395   0.0000       4.412941       120.0822 
 396   0.0000       4.469951       121.6336 
 397   0.0000       4.469986       121.6345 
 398   0.0000       4.479979       121.9064 
 399   0.0000       4.479997       121.9069 
 400   0.0000       4.484178       122.0207 
 401   0.0000       4.488091       122.1272 
 402   0.0000       4.515392       122.8701 
 403   0.0000       4.516665       122.9047 
 404   0.0000       4.516677       122.9050 
 405   0.0000       4.522136       123.0536 
 406   0.0000       4.526541       123.1734 
 407   0.0000       4.526567       123.1742 
 408   0.0000       4.543177       123.6261 
 409   0.0000       4.543186       123.6264 
 410   0.0000       4.566304       124.2554 
 411   0.0000       4.597265       125.0979 
 412   0.0000       4.597325       125.0996 
 413   0.0000       4.625134       125.8563 
 414   0.0000       4.690946       127.6471 
 415   0.0000       4.702874       127.9717 
 416   0.0000       4.702899       127.9724 
 417   0.0000       4.704157       128.0066 
 418   0.0000       4.704188       128.0075 
 419   0.0000       4.781646       130.1152 
 420   0.0000       4.866058       132.4122 
 421   0.0000       4.873379       132.6114 
 422   0.0000       4.873390       132.6117 
 423   0.0000       4.877040       132.7110 
 424   0.0000       4.924014       133.9892 
 425   0.0000       4.924040       133.9899 
 426   0.0000       4.978435       135.4701 
 427   0.0000       5.006957       136.2462 
 428   0.0000       5.006974       136.2467 
 429   0.0000       5.018299       136.5549 
 430   0.0000       5.018313       136.5552 
 431   0.0000       5.024490       136.7233 
 432   0.0000       5.032043       136.9289 
 433   0.0000       5.089537       138.4933 
 434   0.0000       5.090130       138.5095 
 435   0.0000       5.090171       138.5106 
 436   0.0000       5.168576       140.6441 
 437   0.0000       5.168606       140.6449 
 438   0.0000       5.194733       141.3559 
 439   0.0000       5.196567       141.4058 
 440   0.0000       5.196577       141.4060 
 441   0.0000       5.205724       141.6550 
 442   0.0000       5.216483       141.9477 
 443   0.0000       5.216518       141.9487 
 444   0.0000       5.242878       142.6660 
 445   0.0000       5.282840       143.7534 
 446   0.0000       5.282854       143.7538 
 447   0.0000       5.344480       145.4307 
 448   0.0000       5.344488       145.4309 
 449   0.0000       5.376191       146.2936 
 450   0.0000       5.505844       149.8216 
 451   0.0000       5.512851       150.0123 
 452   0.0000       5.512863       150.0126 
 453   0.0000       5.530817       150.5012 
 454   0.0000       5.530829       150.5015 
 455   0.0000       5.540896       150.7754 
 456   0.0000       5.703558       155.2017 
 457   0.0000       5.703610       155.2031 
 458   0.0000       5.708912       155.3474 
 459   0.0000       5.708954       155.3485 
 460   0.0000       5.721311       155.6848 
 461   0.0000       5.734325       156.0389 
 462   0.0000       6.120663       166.5517 
 463   0.0000       6.173416       167.9872 
 464   0.0000       6.173453       167.9882 
 465   0.0000       6.201774       168.7589 
 466   0.0000       6.202220       168.7710 
 467   0.0000       6.202237       168.7714 
 468   0.0000       6.319166       171.9532 
 469   0.0000       6.320596       171.9922 
 470   0.0000       6.320637       171.9933 
 471   0.0000       6.323746       172.0779 
 472   0.0000       6.323787       172.0790 
 473   0.0000       6.336907       172.4360 
 474   0.0000       6.639625       180.6734 
 475   0.0000       6.652405       181.0211 
 476   0.0000       6.652446       181.0223 
 477   0.0000       6.690813       182.0663 
 478   0.0000       6.707954       182.5327 
 479   0.0000       6.707990       182.5337 
 480   0.0000       6.730723       183.1523 
 481   0.0000       6.730770       183.1536 
 482   0.0000       6.747895       183.6195 
 483   0.0000       6.824267       185.6977 
 484   0.0000       6.824281       185.6981 
 485   0.0000       6.883037       187.2969 
 486   0.0000       6.943430       188.9403 
 487   0.0000       6.977366       189.8638 
 488   0.0000       6.977370       189.8639 
 489   0.0000       6.977537       189.8684 
 490   0.0000       6.982984       190.0167 
 491   0.0000       6.983008       190.0173 
 492   0.0000       7.020681       191.0424 
 493   0.0000       7.057582       192.0466 
 494   0.0000       7.057590       192.0468 
 495   0.0000       7.067705       192.3220 
 496   0.0000       7.070693       192.4033 
 497   0.0000       7.077289       192.5828 
 498   0.0000       7.077302       192.5832 
 499   0.0000       7.098743       193.1666 
 500   0.0000       7.098766       193.1672 
 501   0.0000       7.159040       194.8074 
 502   0.0000       7.160040       194.8346 
 503   0.0000       7.162646       194.9055 
 504   0.0000       7.162699       194.9070 
 505   0.0000       7.196235       195.8195 
 506   0.0000       7.196256       195.8201 
 507   0.0000       7.238299       196.9641 
 508   0.0000       7.238315       196.9646 
 509   0.0000       7.238743       196.9762 
 510   0.0000       7.238759       196.9766 
 511   0.0000       7.248537       197.2427 
 512   0.0000       7.251571       197.3253 
 513   0.0000       7.271165       197.8585 
 514   0.0000       7.271185       197.8590 
 515   0.0000       7.351714       200.0503 
 516   0.0000       7.364242       200.3912 
 517   0.0000       7.364252       200.3915 
 518   0.0000       7.383996       200.9287 
 519   0.0000       7.416082       201.8018 
 520   0.0000       7.416099       201.8023 
 521   0.0000       7.417769       201.8478 
 522   0.0000       7.513885       204.4632 
 523   0.0000       7.566194       205.8866 
 524   0.0000       7.566209       205.8870 
 525   0.0000       7.599626       206.7963 
 526   0.0000       7.599634       206.7965 
 527   0.0000       7.608853       207.0474 
 528   0.0000       7.755891       211.0485 
 529   0.0000       7.758904       211.1305 
 530   0.0000       7.758921       211.1310 
 531   0.0000       7.765700       211.3154 
 532   0.0000       7.765738       211.3165 
 533   0.0000       7.779960       211.7035 
 534   0.0000       7.796102       212.1427 
 535   0.0000       7.811648       212.5658 
 536   0.0000       7.811679       212.5666 
 537   0.0000       7.901579       215.0129 
 538   0.0000       7.901599       215.0134 
 539   0.0000       7.967840       216.8160 
 540   0.0000       8.684223       236.3097 
 541   0.0000       8.684257       236.3106 
 542   0.0000       8.684396       236.3144 
 543   0.0000       8.727534       237.4883 
 544   0.0000       8.730351       237.5649 
 545   0.0000       8.730365       237.5653 
 546   0.0000      15.815162       430.3524 
 547   0.0000      16.278890       442.9711 
 548   0.0000      16.278922       442.9720 
 549   0.0000      17.154656       466.8019 
 550   0.0000      17.154680       466.8026 
 551   0.0000      17.617232       479.3893 

                    ********************************
                    * MULLIKEN POPULATION ANALYSIS *
                    ********************************

-----------------------
MULLIKEN ATOMIC CHARGES
-----------------------
   0 O :   -0.437234
   1 H :    0.156510
   2 H :    0.280793
   3 O :   -0.437284
   4 H :    0.280911
   5 H :    0.156192
   6 O :   -0.437287
   7 H :    0.156192
   8 H :    0.280913
   9 O :   -0.437233
  10 H :    0.280793
  11 H :    0.156510
  12 O :   -0.437463
  13 H :    0.156179
  14 H :    0.281396
  15 O :   -0.437465
  16 H :    0.156180
  17 H :    0.281397
Sum of atomic charges:   -0.0000000

--------------------------------
MULLIKEN REDUCED ORBITAL CHARGES
--------------------------------
  0 O s       :     3.880738  s :     3.880738
      pz      :     1.464599  p :     4.544297
      px      :     1.511465
      py      :     1.568232
      dz2     :     0.003497  d :     0.012119
      dxz     :     0.001775
      dyz     :     0.001478
      dx2y2   :     0.002686
      dxy     :     0.002682
      f0      :    -0.000023  f :     0.000080
      f+1     :     0.000020
      f-1     :     0.000130
      f+2     :    -0.000003
      f-2     :     0.000105
      f+3     :     0.000033
      f-3     :    -0.000181
  1 H s       :     0.716593  s :     0.716593
      pz      :     0.026366  p :     0.109884
      px      :     0.037250
      py      :     0.046269
      dz2     :     0.006243  d :     0.017013
      dxz     :     0.004066
      dyz     :     0.001747
      dx2y2   :     0.001545
      dxy     :     0.003412
  2 H s       :     0.594593  s :     0.594593
      pz      :     0.034303  p :     0.076743
      px      :     0.012062
      py      :     0.030378
      dz2     :     0.003378  d :     0.047871
      dxz     :     0.012205
      dyz     :     0.004499
      dx2y2   :     0.017942
      dxy     :     0.009846
  3 O s       :     3.880700  s :     3.880700
      pz      :     1.464333  p :     4.544393
      px      :     1.434860
      py      :     1.645201
      dz2     :     0.003489  d :     0.012111
      dxz     :     0.000707
      dyz     :     0.002538
      dx2y2   :    -0.001098
      dxy     :     0.006475
      f0      :    -0.000023  f :     0.000080
      f+1     :    -0.000007
      f-1     :     0.000157
      f+2     :     0.000070
      f-2     :     0.000033
      f+3     :     0.000033
      f-3     :    -0.000181
  4 H s       :     0.594628  s :     0.594628
      pz      :     0.034232  p :     0.076677
      px      :     0.002950
      py      :     0.039494
      dz2     :     0.003372  d :     0.047784
      dxz     :     0.012242
      dyz     :     0.004421
      dx2y2   :     0.018328
      dxy     :     0.009421
  5 H s       :     0.716830  s :     0.716830
      pz      :     0.026296  p :     0.109948
      px      :     0.038529
      py      :     0.045123
      dz2     :     0.006267  d :     0.017030
      dxz     :     0.001949
      dyz     :     0.003857
      dx2y2   :     0.002694
      dxy     :     0.002263
  6 O s       :     3.880704  s :     3.880704
      pz      :     1.464332  p :     4.544393
      px      :     1.434860
      py      :     1.645201
      dz2     :     0.003489  d :     0.012111
      dxz     :     0.000707
      dyz     :     0.002538
      dx2y2   :    -0.001098
      dxy     :     0.006475
      f0      :    -0.000023  f :     0.000080
      f+1     :    -0.000007
      f-1     :     0.000157
      f+2     :     0.000070
      f-2     :     0.000033
      f+3     :     0.000033
      f-3     :    -0.000181
  7 H s       :     0.716830  s :     0.716830
      pz      :     0.026296  p :     0.109948
      px      :     0.038529
      py      :     0.045123
      dz2     :     0.006267  d :     0.017030
      dxz     :     0.001949
      dyz     :     0.003857
      dx2y2   :     0.002694
      dxy     :     0.002263
  8 H s       :     0.594627  s :     0.594627
      pz      :     0.034232  p :     0.076675
      px      :     0.002949
      py      :     0.039494
      dz2     :     0.003372  d :     0.047784
      dxz     :     0.012242
      dyz     :     0.004421
      dx2y2   :     0.018328
      dxy     :     0.009420
  9 O s       :     3.880736  s :     3.880736
      pz      :     1.464599  p :     4.544298
      px      :     1.511466
      py      :     1.568233
      dz2     :     0.003497  d :     0.012119
      dxz     :     0.001775
      dyz     :     0.001478
      dx2y2   :     0.002686
      dxy     :     0.002682
      f0      :    -0.000023  f :     0.000080
      f+1     :     0.000020
      f-1     :     0.000130
      f+2     :    -0.000003
      f-2     :     0.000105
      f+3     :     0.000033
      f-3     :    -0.000181
 10 H s       :     0.594593  s :     0.594593
      pz      :     0.034302  p :     0.076743
      px      :     0.012063
      py      :     0.030378
      dz2     :     0.003379  d :     0.047871
      dxz     :     0.012205
      dyz     :     0.004499
      dx2y2   :     0.017942
      dxy     :     0.009846
 11 H s       :     0.716593  s :     0.716593
      pz      :     0.026366  p :     0.109885
      px      :     0.037250
      py      :     0.046269
      dz2     :     0.006243  d :     0.017013
      dxz     :     0.004066
      dyz     :     0.001747
      dx2y2   :     0.001545
      dxy     :     0.003412
 12 O s       :     3.880841  s :     3.880841
      pz      :     1.464410  p :     4.544372
      px      :     1.673785
      py      :     1.406177
      dz2     :     0.003508  d :     0.012168
      dxz     :     0.002396
      dyz     :     0.000866
      dx2y2   :     0.006488
      dxy     :    -0.001089
      f0      :    -0.000023  f :     0.000082
      f+1     :     0.000211
      f-1     :    -0.000061
      f+2     :     0.000086
      f-2     :     0.000016
      f+3     :     0.000033
      f-3     :    -0.000180
 13 H s       :     0.716672  s :     0.716672
      pz      :     0.026284  p :     0.110084
      px      :     0.049838
      py      :     0.033962
      dz2     :     0.006263  d :     0.017065
      dxz     :     0.002708
      dyz     :     0.003128
      dx2y2   :     0.003200
      dxy     :     0.001765
 14 H s       :     0.594494  s :     0.594494
      pz      :     0.034186  p :     0.076334
      px      :     0.048650
      py      :    -0.006502
      dz2     :     0.003367  d :     0.047776
      dxz     :     0.000579
      dyz     :     0.016107
      dx2y2   :     0.005400
      dxy     :     0.022323
 15 O s       :     3.880843  s :     3.880843
      pz      :     1.464410  p :     4.544373
      px      :     1.673784
      py      :     1.406179
      dz2     :     0.003508  d :     0.012168
      dxz     :     0.002396
      dyz     :     0.000866
      dx2y2   :     0.006488
      dxy     :    -0.001089
      f0      :    -0.000023  f :     0.000082
      f+1     :     0.000211
      f-1     :    -0.000061
      f+2     :     0.000086
      f-2     :     0.000016
      f+3     :     0.000033
      f-3     :    -0.000180
 16 H s       :     0.716672  s :     0.716672
      pz      :     0.026283  p :     0.110084
      px      :     0.049838
      py      :     0.033962
      dz2     :     0.006263  d :     0.017065
      dxz     :     0.002708
      dyz     :     0.003128
      dx2y2   :     0.003200
      dxy     :     0.001765
 17 H s       :     0.594493  s :     0.594493
      pz      :     0.034186  p :     0.076334
      px      :     0.048650
      py      :    -0.006502
      dz2     :     0.003367  d :     0.047776
      dxz     :     0.000579
      dyz     :     0.016107
      dx2y2   :     0.005400
      dxy     :     0.022323


                     *******************************
                     * LOEWDIN POPULATION ANALYSIS *
                     *******************************

----------------------
LOEWDIN ATOMIC CHARGES
----------------------
   0 O :    1.127073
   1 H :   -0.451989
   2 H :   -0.675081
   3 O :    1.127062
   4 H :   -0.675075
   5 H :   -0.451994
   6 O :    1.127062
   7 H :   -0.451995
   8 H :   -0.675074
   9 O :    1.127072
  10 H :   -0.675078
  11 H :   -0.451991
  12 O :    1.127067
  13 H :   -0.452001
  14 H :   -0.675062
  15 O :    1.127065
  16 H :   -0.452001
  17 H :   -0.675061

-------------------------------
LOEWDIN REDUCED ORBITAL CHARGES
-------------------------------
  0 O s       :     2.945546  s :     2.945546
      pz      :     1.261497  p :     3.807553
      px      :     1.266851
      py      :     1.279206
      dz2     :     0.023486  d :     0.101558
      dxz     :     0.005719
      dyz     :     0.023513
      dx2y2   :     0.015806
      dxy     :     0.033033
      f0      :     0.000821  f :     0.018270
      f+1     :     0.003079
      f-1     :     0.005052
      f+2     :     0.001854
      f-2     :     0.000900
      f+3     :     0.000710
      f-3     :     0.005854
  1 H s       :     0.578885  s :     0.578885
      pz      :     0.220334  p :     0.528705
      px      :     0.137332
      py      :     0.171039
      dz2     :     0.107500  d :     0.344399
      dxz     :     0.077733
      dyz     :     0.089336
      dx2y2   :     0.029735
      dxy     :     0.040095
  2 H s       :     0.540372  s :     0.540372
      pz      :     0.138904  p :     0.625218
      px      :     0.293790
      py      :     0.192524
      dz2     :     0.054157  d :     0.509491
      dxz     :     0.108416
      dyz     :     0.049660
      dx2y2   :     0.149709
      dxy     :     0.147549
  3 O s       :     2.945546  s :     2.945546
      pz      :     1.261493  p :     3.807561
      px      :     1.239616
      py      :     1.306452
      dz2     :     0.023486  d :     0.101561
      dxz     :     0.015629
      dyz     :     0.013605
      dx2y2   :     0.024109
      dxy     :     0.024732
      f0      :     0.000821  f :     0.018270
      f+1     :     0.003455
      f-1     :     0.004676
      f+2     :     0.000487
      f-2     :     0.002267
      f+3     :     0.000710
      f-3     :     0.005854
  4 H s       :     0.540373  s :     0.540373
      pz      :     0.138899  p :     0.625215
      px      :     0.296125
      py      :     0.190190
      dz2     :     0.054159  d :     0.509487
      dxz     :     0.124501
      dyz     :     0.033572
      dx2y2   :     0.145186
      dxy     :     0.152070
  5 H s       :     0.578888  s :     0.578888
      pz      :     0.220337  p :     0.528710
      px      :     0.148724
      py      :     0.159650
      dz2     :     0.107499  d :     0.344396
      dxz     :     0.085193
      dyz     :     0.081875
      dx2y2   :     0.039125
      dxy     :     0.030704
  6 O s       :     2.945546  s :     2.945546
      pz      :     1.261494  p :     3.807561
      px      :     1.239616
      py      :     1.306452
      dz2     :     0.023486  d :     0.101561
      dxz     :     0.015629
      dyz     :     0.013605
      dx2y2   :     0.024109
      dxy     :     0.024732
      f0      :     0.000821  f :     0.018270
      f+1     :     0.003455
      f-1     :     0.004676
      f+2     :     0.000487
      f-2     :     0.002267
      f+3     :     0.000710
      f-3     :     0.005854
  7 H s       :     0.578888  s :     0.578888
      pz      :     0.220337  p :     0.528711
      px      :     0.148724
      py      :     0.159650
      dz2     :     0.107499  d :     0.344396
      dxz     :     0.085193
      dyz     :     0.081875
      dx2y2   :     0.039125
      dxy     :     0.030704
  8 H s       :     0.540373  s :     0.540373
      pz      :     0.138899  p :     0.625214
      px      :     0.296125
      py      :     0.190190
      dz2     :     0.054159  d :     0.509487
      dxz     :     0.124501
      dyz     :     0.033572
      dx2y2   :     0.145186
      dxy     :     0.152070
  9 O s       :     2.945546  s :     2.945546
      pz      :     1.261497  p :     3.807553
      px      :     1.266851
      py      :     1.279206
      dz2     :     0.023486  d :     0.101558
      dxz     :     0.005719
      dyz     :     0.023513
      dx2y2   :     0.015806
      dxy     :     0.033033
      f0      :     0.000821  f :     0.018270
      f+1     :     0.003079
      f-1     :     0.005052
      f+2     :     0.001854
      f-2     :     0.000900
      f+3     :     0.000710
      f-3     :     0.005854
 10 H s       :     0.540371  s :     0.540371
      pz      :     0.138903  p :     0.625216
      px      :     0.293789
      py      :     0.192524
      dz2     :     0.054156  d :     0.509490
      dxz     :     0.108415
      dyz     :     0.049660
      dx2y2   :     0.149709
      dxy     :     0.147549
 11 H s       :     0.578885  s :     0.578885
      pz      :     0.220334  p :     0.528706
      px      :     0.137332
      py      :     0.171040
      dz2     :     0.107500  d :     0.344400
      dxz     :     0.077734
      dyz     :     0.089336
      dx2y2   :     0.029735
      dxy     :     0.040095
 12 O s       :     2.945546  s :     2.945546
      pz      :     1.261497  p :     3.807559
      px      :     1.312631
      py      :     1.233431
      dz2     :     0.023486  d :     0.101559
      dxz     :     0.022502
      dyz     :     0.006732
      dx2y2   :     0.033346
      dxy     :     0.015494
      f0      :     0.000821  f :     0.018270
      f+1     :     0.005662
      f-1     :     0.002469
      f+2     :     0.001791
      f-2     :     0.000963
      f+3     :     0.000710
      f-3     :     0.005854
 13 H s       :     0.578886  s :     0.578886
      pz      :     0.220335  p :     0.528716
      px      :     0.176510
      py      :     0.131871
      dz2     :     0.107499  d :     0.344399
      dxz     :     0.087678
      dyz     :     0.079393
      dx2y2   :     0.035885
      dxy     :     0.033944
 14 H s       :     0.540370  s :     0.540370
      pz      :     0.138899  p :     0.625207
      px      :     0.139558
      py      :     0.346750
      dz2     :     0.054157  d :     0.509484
      dxz     :     0.004197
      dyz     :     0.153874
      dx2y2   :     0.150992
      dxy     :     0.146263
 15 O s       :     2.945547  s :     2.945547
      pz      :     1.261497  p :     3.807559
      px      :     1.312631
      py      :     1.233431
      dz2     :     0.023486  d :     0.101559
      dxz     :     0.022502
      dyz     :     0.006732
      dx2y2   :     0.033346
      dxy     :     0.015494
      f0      :     0.000821  f :     0.018270
      f+1     :     0.005662
      f-1     :     0.002469
      f+2     :     0.001791
      f-2     :     0.000963
      f+3     :     0.000710
      f-3     :     0.005854
 16 H s       :     0.578886  s :     0.578886
      pz      :     0.220335  p :     0.528716
      px      :     0.176510
      py      :     0.131871
      dz2     :     0.107499  d :     0.344399
      dxz     :     0.087678
      dyz     :     0.079393
      dx2y2   :     0.035885
      dxy     :     0.033944
 17 H s       :     0.540370  s :     0.540370
      pz      :     0.138899  p :     0.625207
      px      :     0.139558
      py      :     0.346750
      dz2     :     0.054157  d :     0.509484
      dxz     :     0.004197
      dyz     :     0.153874
      dx2y2   :     0.150992
      dxy     :     0.146263


                      *****************************
                      * MAYER POPULATION ANALYSIS *
                      *****************************

  NA   - Mulliken gross atomic population
  ZA   - Total nuclear charge
  QA   - Mulliken gross atomic charge
  VA   - Mayer's total valence
  BVA  - Mayer's bonded valence
  FA   - Mayer's free valence

  ATOM       NA         ZA         QA         VA         BVA        FA
  0 O      8.4372     8.0000    -0.4372     1.9141     1.9141     0.0000
  1 H      0.8435     1.0000     0.1565     1.0959     1.0959     0.0000
  2 H      0.7192     1.0000     0.2808     0.9986     0.9986     0.0000
  3 O      8.4373     8.0000    -0.4373     1.9138     1.9138    -0.0000
  4 H      0.7191     1.0000     0.2809     0.9985     0.9985    -0.0000
  5 H      0.8438     1.0000     0.1562     1.0961     1.0961    -0.0000
  6 O      8.4373     8.0000    -0.4373     1.9138     1.9138    -0.0000
  7 H      0.8438     1.0000     0.1562     1.0961     1.0961     0.0000
  8 H      0.7191     1.0000     0.2809     0.9985     0.9985    -0.0000
  9 O      8.4372     8.0000    -0.4372     1.9141     1.9141     0.0000
 10 H      0.7192     1.0000     0.2808     0.9986     0.9986     0.0000
 11 H      0.8435     1.0000     0.1565     1.0959     1.0959    -0.0000
 12 O      8.4375     8.0000    -0.4375     1.9137     1.9137    -0.0000
 13 H      0.8438     1.0000     0.1562     1.0965     1.0965    -0.0000
 14 H      0.7186     1.0000     0.2814     0.9975     0.9975    -0.0000
 15 O      8.4375     8.0000    -0.4375     1.9137     1.9137     0.0000
 16 H      0.8438     1.0000     0.1562     1.0965     1.0965    -0.0000
 17 H      0.7186     1.0000     0.2814     0.9975     0.9975    -0.0000

  Mayer bond orders larger than 0.100000
B(  0-O ,  1-H ) :   1.0585 B(  0-O ,  2-H ) :   0.8902 B(  3-O ,  4-H ) :   0.8900 
B(  3-O ,  5-H ) :   1.0587 B(  6-O ,  7-H ) :   1.0587 B(  6-O ,  8-H ) :   0.8899 
B(  9-O , 10-H ) :   0.8902 B(  9-O , 11-H ) :   1.0585 B( 12-O , 13-H ) :   1.0589 
B( 12-O , 14-H ) :   0.8894 B( 15-O , 16-H ) :   1.0589 B( 15-O , 17-H ) :   0.8894 


-------
TIMINGS
-------

Total SCF time: 0 days 0 hours 0 min 14 sec 

Total time                  ....      14.240 sec
Sum of individual times     ....      13.716 sec  ( 96.3%)

Fock matrix formation       ....      11.616 sec  ( 81.6%)
  XC integration            ....       2.451 sec  ( 21.1% of F)
    Basis function eval.    ....       0.365 sec  ( 14.9% of XC)
    Density eval.           ....       0.509 sec  ( 20.8% of XC)
    XC-Functional eval.     ....       0.038 sec  (  1.5% of XC)
    XC-Potential eval.      ....       0.788 sec  ( 32.1% of XC)
Diagonalization             ....       0.643 sec  (  4.5%)
Density matrix formation    ....       0.074 sec  (  0.5%)
Population analysis         ....       0.055 sec  (  0.4%)
Initial guess               ....       0.314 sec  (  2.2%)
Orbital Transformation      ....       0.000 sec  (  0.0%)
Orbital Orthonormalization  ....       0.000 sec  (  0.0%)
DIIS solution               ....       0.390 sec  (  2.7%)
SOSCF solution              ....       0.236 sec  (  1.7%)
Grid generation             ....       0.388 sec  (  2.7%)


           ************************************************************
           *        Program running with 24 parallel MPI-processes    *
[...]
      1      -0.012451   0.012936   0.010481  -0.013203  -0.009418  -0.011370
      2      -0.001900   0.002179   0.001182  -0.001845  -0.001817  -0.001957
      3       0.001250   0.004774  -0.005036  -0.002272  -0.008976  -0.007135
      4      -0.027087   0.026276   0.029515  -0.033569  -0.016851  -0.025275
      5      -0.033515   0.033049   0.037548  -0.043490  -0.022278  -0.032839
      6       0.347211  -0.372195  -0.315472   0.399428   0.270023   0.337009
      7       0.205659  -0.228082  -0.183790   0.240666   0.170030   0.207367
      8       0.056479  -0.065126  -0.052550   0.072412   0.050828   0.063955
      9       0.021090  -0.004293   0.029080   0.002877  -0.029512   0.021241
     10      -0.012398   0.002946  -0.018086  -0.001252   0.018485  -0.013122
     11      -0.001778  -0.000169  -0.002353  -0.000721   0.002464  -0.001982
     12      -0.340748   0.071927  -0.482084  -0.049096   0.500048  -0.362867
     13       0.192737  -0.047295   0.267327   0.020987  -0.273067   0.196217
     14       0.054476  -0.010852   0.081098   0.009322  -0.089039   0.066498
     15       0.022472  -0.006677   0.033259   0.002108  -0.036702   0.026991
     16       0.014686  -0.012298   0.017352  -0.006906  -0.013509   0.007190
     17      -0.033400   0.015535  -0.047746   0.001859   0.050444  -0.035166
     18      -0.021110  -0.004290   0.029061  -0.002864   0.029547   0.021205
     19       0.012405   0.002938  -0.018075   0.001240  -0.018510  -0.013090
     20       0.001778  -0.000169  -0.002350   0.000719  -0.002466  -0.001978
     21      -0.022491  -0.006661   0.033241  -0.002082   0.036743   0.026922
     22      -0.014687  -0.012290   0.017356   0.006911   0.013533   0.007149
     23       0.033392   0.015496  -0.047699  -0.001897  -0.050477  -0.035018
     24       0.340957   0.071901  -0.481756   0.048779  -0.500759  -0.362277
     25      -0.192818  -0.047286   0.267126  -0.020825   0.273429   0.195862
     26      -0.054453  -0.010853   0.080975  -0.009263   0.089101   0.066335
     27       0.021929   0.023961   0.019976   0.025299   0.016910  -0.021126
     28       0.012442   0.012943   0.010489   0.013171   0.009399  -0.011399
     29       0.001894   0.002175   0.001179   0.001834   0.001808  -0.001956
     30      -0.347042  -0.372496  -0.315753  -0.398520  -0.269592   0.337970
     31      -0.205572  -0.228276  -0.183962  -0.240129  -0.169773   0.207979
     32      -0.056449  -0.065165  -0.052569  -0.072217  -0.050737   0.064127
     33      -0.000946   0.005042  -0.004913   0.002461   0.009253  -0.007440
     34       0.027134   0.026356   0.029568   0.033546   0.016897  -0.025428
     35       0.033568   0.033144   0.037612   0.043454   0.022331  -0.033034
     36       0.000154   0.001096  -0.000197  -0.000835   0.000890   0.000665
     37       0.025550   0.033045  -0.013224  -0.031129   0.014283   0.023699
     38      -0.001940  -0.002138   0.001431   0.002529  -0.000612  -0.001911
     39      -0.024095  -0.033931   0.003655   0.022218  -0.018497  -0.018239
     40       0.012694   0.017500  -0.010622  -0.023607   0.007545   0.018804
     41      -0.033594  -0.048295   0.010277   0.040629  -0.025606  -0.032900
     42       0.004123   0.006636  -0.009614  -0.014976   0.001274   0.011124
     43      -0.408427  -0.532640   0.210779   0.510034  -0.231809  -0.391723
     44       0.057239   0.077722  -0.032745  -0.080311   0.035400   0.063308
     45      -0.000162   0.001100  -0.000195   0.000833  -0.000897   0.000662
     46      -0.025573   0.033030  -0.013194   0.031183  -0.014273   0.023641
     47       0.001944  -0.002138   0.001431  -0.002535   0.000613  -0.001911
     48       0.024112  -0.033908   0.003635  -0.022278   0.018492  -0.018223
     49      -0.012698   0.017484  -0.010599   0.023662  -0.007533   0.018770
     50       0.033655  -0.048297   0.010255  -0.040758   0.025612  -0.032883
     51      -0.004053   0.006513  -0.009637   0.015086  -0.001186   0.011203
     52       0.408781  -0.532307   0.210359  -0.510929   0.231660  -0.390874
     53      -0.057365   0.077771  -0.032716   0.080557  -0.035408   0.063252
                 48         49         50         51         52         53    
      0      -0.000376   0.000191  -0.000262   0.000747   0.000162  -0.000470
      1      -0.003826   0.000042   0.000864  -0.016450  -0.016983   0.027614
      2      -0.005127  -0.000031   0.001311  -0.023281  -0.023606   0.038442
      3      -0.011013   0.000171   0.002282  -0.044341  -0.045182   0.073574
      4       0.054382   0.000735  -0.014376   0.251006   0.252826  -0.412165
      5       0.082027   0.001048  -0.021519   0.377467   0.380323  -0.619668
      6       0.014564  -0.002841   0.001261   0.031271   0.041137  -0.064437
      7       0.008099  -0.001736   0.001406   0.010467   0.016425  -0.025550
      8       0.000600  -0.001037   0.001449  -0.009004  -0.004964   0.008388
      9       0.005180   0.030144   0.002412  -0.004360  -0.003400  -0.003976
     10       0.003090   0.018029   0.001261  -0.003170  -0.001421  -0.002535
     11      -0.008417  -0.048977  -0.003662   0.007705   0.004748   0.006554
     12      -0.011719  -0.068491  -0.007591   0.003217   0.015547   0.007888
     13       0.009607   0.055299   0.005498  -0.005276  -0.009656  -0.006597
     14      -0.002154  -0.012149   0.000485   0.004024  -0.002261   0.001208
     15      -0.070053  -0.407835  -0.030062   0.065293   0.038248   0.054567
     16      -0.058825  -0.342947  -0.025252   0.053395   0.032873   0.045438
     17       0.135745   0.790270   0.058285  -0.125197  -0.074767  -0.105170
     18       0.030451  -0.005077   0.004284  -0.000311  -0.000569   0.004051
     19       0.018211  -0.003041   0.003034   0.000154   0.000272   0.002241
     20      -0.049442   0.008238  -0.007459   0.000077   0.000196  -0.006262
     21      -0.411842   0.068656  -0.063043  -0.000112   0.000536  -0.051487
     22      -0.346383   0.057818  -0.051594   0.000341   0.001296  -0.043307
     23       0.797641  -0.132971   0.120881  -0.000220  -0.001892   0.099583
     24      -0.069218   0.011608  -0.004126   0.004727   0.008712  -0.012313
     25       0.055898  -0.009236   0.005658  -0.002422  -0.004394   0.008629
     26      -0.012202   0.001961  -0.003376  -0.001939  -0.002734   0.000577
     27       0.000054  -0.000384  -0.000795   0.000017   0.000371   0.000331
     28      -0.001412  -0.005057   0.015726   0.004923  -0.028435  -0.015159
     29      -0.001978  -0.006835   0.022290   0.006864  -0.039550  -0.021126
     30       0.002654   0.017843  -0.028785  -0.012530   0.067613   0.034438
     31       0.001261   0.009408  -0.009210  -0.005259   0.026876   0.013525
     32      -0.000837   0.000360   0.008976   0.001578  -0.008505  -0.004803
     33      -0.003938  -0.014168   0.042235   0.013273  -0.075407  -0.040222
     34       0.021408   0.072592  -0.240448  -0.073709   0.423835   0.226702
     35       0.032207   0.109410  -0.361536  -0.110935   0.637358   0.340703
     36      -0.004878   0.001526   0.027806   0.003545   0.012176   0.008051
     37       0.002065  -0.000811  -0.015576  -0.001974  -0.006262  -0.004173
     38      -0.007739   0.002457   0.044438   0.005660   0.019287   0.012740
     39       0.080389  -0.025281  -0.454814  -0.058116  -0.197421  -0.130399
     40      -0.029457   0.009379   0.163462   0.020771   0.072182   0.047486
     41       0.127016  -0.040129  -0.716576  -0.091429  -0.311714  -0.205635
     42      -0.002730   0.000984   0.011890   0.001354   0.006227   0.003615
     43      -0.003525   0.003381   0.081044   0.010112   0.026630   0.018760
     44      -0.005626   0.001164   0.009752   0.001252   0.006370   0.003719
     45      -0.000102  -0.005824   0.004948  -0.027426   0.006104  -0.013271
     46      -0.000141   0.002618  -0.002812   0.015371  -0.003090   0.006876
     47      -0.000119  -0.009263   0.007923  -0.043857   0.009676  -0.021020
     48       0.001512   0.095961  -0.080841   0.448710  -0.099019   0.215010
     49      -0.000499  -0.035133   0.029105  -0.161151   0.036337  -0.078394
     50       0.002219   0.151606  -0.127542   0.707279  -0.156569   0.339444
     51       0.000023  -0.003208   0.002229  -0.011691   0.003426  -0.006367
     52       0.002540  -0.006570   0.015098  -0.080080   0.012319  -0.030438
     53      -0.000802  -0.005948   0.001584  -0.009568   0.003597  -0.006393


-----------
IR SPECTRUM  
-----------

 Mode    freq (cm**-1)   T**2         TX         TY         TZ
-------------------------------------------------------------------
   6:        33.80    0.061756  (  0.138215   0.205614  -0.019379)
   7:        40.62    0.181037  (  0.231688  -0.348066  -0.078794)
   8:        45.01    0.001514  (  0.030959  -0.020968  -0.010787)
   9:        49.05    0.000408  ( -0.015683   0.003741  -0.012166)
  10:        59.16    0.000121  (  0.005983   0.007136  -0.005870)
  11:        85.59    3.196046  ( -0.063844  -0.165397   1.778936)
  12:       162.13    0.001520  (  0.033648  -0.010520  -0.016660)
  13:       209.03   74.050944  ( -0.199573   1.243533   8.512622)
  14:       220.24   34.413644  (  2.568647  -4.951026  -1.817427)
  15:       220.63   27.215728  ( -3.993454  -1.929198  -2.747044)
  16:       221.35    0.122869  ( -0.259221  -0.096927  -0.215124)
  17:       239.40    0.015882  (  0.001834   0.124812   0.017338)
  18:       280.18  333.293963  ( 14.032511  11.646965  -0.854871)
  19:       289.87  334.964924  ( 11.801641 -13.960590   0.887754)
  20:       305.18    0.179478  ( -0.274359   0.322752  -0.006007)
  21:       306.67    0.026074  (  0.101314  -0.125735  -0.000076)
  22:       310.24    0.088172  (  0.180184  -0.235976   0.004627)
  23:       338.29    3.152951  ( -0.291448   0.123727   1.747198)
  24:       432.80    0.772664  (  0.501473   0.695549   0.193392)
  25:       444.88   49.382654  (  4.466479   5.399389   0.528978)
  26:       454.80   40.808753  ( -5.083843   3.867967  -0.046030)
  27:       468.44   29.655282  ( -1.147590  -1.084903   5.211651)
  28:       473.50    1.403096  (  0.072786  -0.014738   1.182193)
  29:       475.74    0.547702  ( -0.100599  -0.001042  -0.733199)
  30:       792.81  251.113368  (  0.355995  -0.180085 -15.841534)
  31:       811.80    0.003286  ( -0.000215  -0.031329  -0.048000)
  32:       817.78    0.007647  ( -0.017631   0.025016  -0.081916)
  33:       905.14  161.871497  ( 12.332294  -3.078217   0.557318)
  34:       909.95  151.056535  (  3.091180  11.894552  -0.144087)
  35:       981.91    0.002145  (  0.039849   0.006294   0.022758)
  36:      1646.71  101.293886  (  0.509393  -0.054543 -10.051439)
  37:      1657.24    0.127880  ( -0.099412  -0.003950  -0.343485)
  38:      1659.89    0.001616  ( -0.018485   0.005507  -0.035267)
  39:      1686.42   84.047546  (  9.044259   1.460306   0.341214)
  40:      1688.16   80.749309  (  1.269831  -8.893803   0.192606)
  41:      1703.91    0.017092  ( -0.125849  -0.017836   0.030589)
  42:      3314.42    0.000330  (  0.013621   0.011958  -0.001235)
  43:      3390.37  2820.881740  (-17.574549 -50.119753   0.165359)
  44:      3394.52  2791.908991  (-49.811869  17.622289  -0.376370)
  45:      3450.60    0.000754  (  0.021119  -0.004826   0.016879)
  46:      3453.04    0.000309  ( -0.005513   0.014916   0.007510)
  47:      3471.41  172.643893  ( -0.664711   0.556716  13.110763)
  48:      3883.91  107.339145  ( -6.331644  -0.180611   8.198586)
  49:      3884.06   55.716516  ( -4.264725  -0.052544   6.125837)
  50:      3884.57   98.695849  ( -6.161110   2.852334  -7.252638)
  51:      3884.66   51.565480  (  4.403129  -2.172390   5.240101)
  52:      3885.09  116.711760  (  2.467192   9.982897   3.311570)
  53:      3885.27    8.959543  ( -0.445611  -2.764762  -1.056912)

The first frequency considered to be a vibration is 6
The total number of vibrations considered is 48


--------------------------
THERMOCHEMISTRY AT 298.15K
--------------------------

Temperature         ... 298.15 K
Pressure            ... 1.00 atm
Total Mass          ... 108.09 AMU

Throughout the following assumptions are being made:
  (1) The electronic state is orbitally nondegenerate
  (2) There are no thermally accessible electronically excited states
  (3) Hindered rotations indicated by low frequency modes are not
      treated as such but are treated as vibrations and this may
      cause some error
  (4) All equations used are the standard statistical mechanics
      equations for an ideal gas
  (5) All vibrations are strictly harmonic

freq.      33.80  E(vib)   ...       0.55 
freq.      40.62  E(vib)   ...       0.54 
freq.      45.01  E(vib)   ...       0.53 
freq.      49.05  E(vib)   ...       0.53 
freq.      59.16  E(vib)   ...       0.51 
freq.      85.59  E(vib)   ...       0.48 
freq.     162.13  E(vib)   ...       0.39 
freq.     209.03  E(vib)   ...       0.34 
freq.     220.24  E(vib)   ...       0.33 
freq.     220.63  E(vib)   ...       0.33 
freq.     221.35  E(vib)   ...       0.33 
freq.     239.40  E(vib)   ...       0.31 
freq.     280.18  E(vib)   ...       0.28 
freq.     289.87  E(vib)   ...       0.27 
freq.     305.18  E(vib)   ...       0.26 
freq.     306.67  E(vib)   ...       0.26 
freq.     310.24  E(vib)   ...       0.26 
freq.     338.29  E(vib)   ...       0.23 
freq.     432.80  E(vib)   ...       0.17 
freq.     444.88  E(vib)   ...       0.17 
freq.     454.80  E(vib)   ...       0.16 
freq.     468.44  E(vib)   ...       0.16 
freq.     473.50  E(vib)   ...       0.15 
freq.     475.74  E(vib)   ...       0.15 
freq.     792.81  E(vib)   ...       0.05 
freq.     811.80  E(vib)   ...       0.05 
freq.     817.78  E(vib)   ...       0.05 
freq.     905.14  E(vib)   ...       0.03 
freq.     909.95  E(vib)   ...       0.03 
freq.     981.91  E(vib)   ...       0.02 
freq.    1646.71  E(vib)   ...       0.00 
freq.    1657.24  E(vib)   ...       0.00 
freq.    1659.89  E(vib)   ...       0.00 
freq.    1686.42  E(vib)   ...       0.00 
freq.    1688.16  E(vib)   ...       0.00 
freq.    1703.91  E(vib)   ...       0.00 
freq.    3314.42  E(vib)   ...       0.00 
freq.    3390.37  E(vib)   ...       0.00 
freq.    3394.52  E(vib)   ...       0.00 
freq.    3450.60  E(vib)   ...       0.00 
freq.    3453.04  E(vib)   ...       0.00 
freq.    3471.41  E(vib)   ...       0.00 
freq.    3883.91  E(vib)   ...       0.00 
freq.    3884.06  E(vib)   ...       0.00 
freq.    3884.57  E(vib)   ...       0.00 
freq.    3884.66  E(vib)   ...       0.00 
freq.    3885.09  E(vib)   ...       0.00 
freq.    3885.27  E(vib)   ...       0.00 

------------
INNER ENERGY
------------

The inner energy is: U= E(el) + E(ZPE) + E(vib) + E(rot) + E(trans)
    E(el)   - is the total energy from the electronic structure calculation
              = E(kin-el) + E(nuc-el) + E(el-el) + E(nuc-nuc)
    E(ZPE)  - the the zero temperature vibrational energy from the frequency calculation
    E(vib)  - the the finite temperature correction to E(ZPE) due to population
              of excited vibrational states
    E(rot)  - is the rotational thermal energy
    E(trans)- is the translational thermal energy

Summary of contributions to the inner energy U:
Electronic energy                ...   -458.56334863 Eh
Zero point energy                ...      0.14855988 Eh      93.22 kcal/mol
Thermal vibrational correction   ...      0.01265881 Eh       7.94 kcal/mol
Thermal rotational correction    ...      0.00141627 Eh       0.89 kcal/mol
Thermal translational correction ...      0.00141627 Eh       0.89 kcal/mol
-----------------------------------------------------------------------
Total thermal energy                   -458.39929739 Eh


Summary of corrections to the electronic energy:
(perhaps to be used in another calculation)
Total thermal correction                  0.01549136 Eh       9.72 kcal/mol
Non-thermal (ZPE) correction              0.14855988 Eh      93.22 kcal/mol
-----------------------------------------------------------------------
Total correction                          0.16405124 Eh     102.94 kcal/mol


--------
ENTHALPY
--------

The enthalpy is H = U + kB*T
                kB is Boltzmann's constant
Total free energy                 ...   -458.39929739 Eh 
Thermal Enthalpy correction       ...      0.00094421 Eh       0.59 kcal/mol
-----------------------------------------------------------------------
Total Enthalpy                    ...   -458.39835318 Eh


Note: Only C1 symmetry has been detected, increase convergence thresholds 
      if your molecule has a higher symmetry. Symmetry factor of 1.0 is   
      used for the rotational entropy correction. 
 

Note: Rotational entropy computed according to Herzberg 
Infrared and Raman Spectra, Chapter V,1, Van Nostrand Reinhold, 1945 
Point Group:  C1, Symmetry Number:   1  
Rotational constants in cm-1:     0.041984     0.041922     0.021406 

Vibrational entropy computed according to the QRRHO of S. Grimme
Chem.Eur.J. 2012 18 9955


-------
ENTROPY
-------

The entropy contributions are T*S = T*(S(el)+S(vib)+S(rot)+S(trans))
     S(el)   - electronic entropy
     S(vib)  - vibrational entropy
     S(rot)  - rotational entropy
     S(trans)- translational entropy
The entropies will be listed as mutliplied by the temperature to get
units of energy

Electronic entropy                ...      0.00000000 Eh      0.00 kcal/mol
Vibrational entropy               ...      0.02286850 Eh     14.35 kcal/mol
Rotational entropy                ...      0.01431977 Eh      8.99 kcal/mol
Translational entropy             ...      0.01898142 Eh     11.91 kcal/mol
-----------------------------------------------------------------------
Final entropy term                ...      0.05616969 Eh     35.25 kcal/mol

In case the symmetry of your molecule has not been determined correctly
or in case you have a reason to use a different symmetry number we print 
out the resulting rotational entropy values for sn=1,12 :
 --------------------------------------------------------
|  sn= 1 | S(rot)=       0.01431977 Eh      8.99 kcal/mol|
|  sn= 2 | S(rot)=       0.01366531 Eh      8.58 kcal/mol|
|  sn= 3 | S(rot)=       0.01328248 Eh      8.33 kcal/mol|
|  sn= 4 | S(rot)=       0.01301086 Eh      8.16 kcal/mol|
|  sn= 5 | S(rot)=       0.01280017 Eh      8.03 kcal/mol|
|  sn= 6 | S(rot)=       0.01262802 Eh      7.92 kcal/mol|
|  sn= 7 | S(rot)=       0.01248248 Eh      7.83 kcal/mol|
|  sn= 8 | S(rot)=       0.01235640 Eh      7.75 kcal/mol|
|  sn= 9 | S(rot)=       0.01224519 Eh      7.68 kcal/mol|
|  sn=10 | S(rot)=       0.01214571 Eh      7.62 kcal/mol|
|  sn=11 | S(rot)=       0.01205572 Eh      7.57 kcal/mol|
|  sn=12 | S(rot)=       0.01197357 Eh      7.51 kcal/mol|
 --------------------------------------------------------


-------------------
GIBBS FREE ENERGY
-------------------

The Gibbs free energy is G = H - T*S

Total enthalpy                    ...   -458.39835318 Eh 
Total entropy correction          ...     -0.05616969 Eh    -35.25 kcal/mol
-----------------------------------------------------------------------
Final Gibbs free energy         ...   -458.45452287 Eh

For completeness - the Gibbs free energy minus the electronic energy
G-E(el)                           ...      0.10882576 Eh     68.29 kcal/mol


Total Time for Numerical Frequencies  :      9665.312 sec

Timings for individual modules:

Sum of individual times         ...      641.844 sec (=  10.697 min)
GTO integral calculation        ...        4.893 sec (=   0.082 min)   0.8 %
SCF iterations                  ...       43.154 sec (=   0.719 min)   6.7 %
MP2 module                      ...      593.488 sec (=   9.891 min)  92.5 %
Geometry relaxation             ...        0.310 sec (=   0.005 min)   0.0 %
                             ****ORCA TERMINATED NORMALLY****
TOTAL RUN TIME: 0 days 2 hours 50 minutes 5 seconds 730 msec
