
                                 *****************
                                 * O   R   C   A *
                                 *****************

           --- An Ab Initio, DFT and Semiempirical electronic structure package ---

                  #######################################################
                  #                        -***-                        #
                  #          Department of theory and spectroscopy      #
                  #               Directorship: Frank Neese             #
                  #        Max Planck Institute fuer Kohlenforschung    #
                  #                Kaiser Wilhelm Platz 1               #
                  #                 D-45470 Muelheim/Ruhr               #
                  #                      Germany                        #
                  #                                                     #
                  #                  All rights reserved                #
                  #                        -***-                        #
                  #######################################################


                         Program Version 4.2.0 -  RELEASE  -


 With contributions from (in alphabetic order):
   Daniel Aravena         : Magnetic Suceptibility
   Michael Atanasov       : Ab Initio Ligand Field Theory (pilot matlab implementation)
   Alexander A. Auer      : GIAO ZORA, VPT2
   Ute Becker             : Parallelization
   Giovanni Bistoni       : ED, misc. LED, open-shell LED, HFLED
   Martin Brehm           : Molecular dynamics
   Dmytro Bykov           : SCF Hessian
   Vijay G. Chilkuri      : MRCI spin determinant printing, contributions to CSF-ICE
   Dipayan Datta          : RHF DLPNO-CCSD density
   Achintya Kumar Dutta   : EOM-CC, STEOM-CC
   Dmitry Ganyushin       : Spin-Orbit,Spin-Spin,Magnetic field MRCI
   Miquel Garcia          : C-PCM Hessian, Gaussian charge scheme
   Yang Guo               : DLPNO-NEVPT2, CIM, IAO-localization
   Andreas Hansen         : Spin unrestricted coupled pair/coupled cluster methods
   Benjamin Helmich-Paris : CASSCF linear response (MC-RPA)
   Lee Huntington         : MR-EOM, pCC
   Robert Izsak           : Overlap fitted RIJCOSX, COSX-SCS-MP3, EOM
   Christian Kollmar      : KDIIS, OOCD, Brueckner-CCSD(T), CCSD density
   Simone Kossmann        : Meta GGA functionals, TD-DFT gradient, OOMP2, MP2 Hessian
   Martin Krupicka        : AUTO-CI
   Lucas Lang             : DCDCAS
   Dagmar Lenk            : GEPOL surface, SMD
   Dimitrios Liakos       : Extrapolation schemes; Compound Job, initial MDCI parallelization
   Dimitrios Manganas     : Further ROCIS development; embedding schemes
   Dimitrios Pantazis     : SARC Basis sets
   Taras Petrenko         : DFT Hessian,TD-DFT gradient, ASA, ECA, R-Raman, ABS, FL, XAS/XES, NRVS
   Peter Pinski           : DLPNO-MP2, DLPNO-MP2 Gradient
   Christoph Reimann      : Effective Core Potentials
   Marius Retegan         : Local ZFS, SOC
   Christoph Riplinger    : Optimizer, TS searches, QM/MM, DLPNO-CCSD(T), (RO)-DLPNO pert. Triples
   Tobias Risthaus        : Range-separated hybrids, TD-DFT gradient, RPA, STAB
   Michael Roemelt        : Original ROCIS implementation
   Masaaki Saitow         : Open-shell DLPNO-CCSD energy and density
   Barbara Sandhoefer     : DKH picture change effects
   Avijit Sen             : IP-ROCIS
   Kantharuban Sivalingam : CASSCF convergence, NEVPT2, FIC-MRCI
   Bernardo de Souza      : ESD, SOC TD-DFT
   Georgi Stoychev        : AutoAux, RI-MP2 NMR
   Willem Van den Heuvel  : Paramagnetic NMR
   Boris Wezisla          : Elementary symmetry handling
   Frank Wennmohs         : Technical directorship


 We gratefully acknowledge several colleagues who have allowed us to
 interface, adapt or use parts of their codes:
   Stefan Grimme, W. Hujo, H. Kruse,             : VdW corrections, initial TS optimization,
                  C. Bannwarth                     DFT functionals, gCP, sTDA/sTD-DF
   Ed Valeev, F. Pavosevic, A. Kumar             : LibInt (2-el integral package), F12 methods
   Garnet Chan, S. Sharma, J. Yang, R. Olivares  : DMRG
   Ulf Ekstrom                                   : XCFun DFT Library
   Mihaly Kallay                                 : mrcc  (arbitrary order and MRCC methods)
   Andreas Klamt, Michael Diedenhofen            : otool_cosmo (COSMO solvation model)
   Jiri Pittner, Ondrej Demel                    : Mk-CCSD
   Frank Weinhold                                : gennbo (NPA and NBO analysis)
   Christopher J. Cramer and Donald G. Truhlar   : smd solvation model
   Lars Goerigk                                  : TD-DFT with DH, B97 family of functionals
   V. Asgeirsson, H. Jonsson                     : NEB implementation
   FAccTs GmbH                                   : IRC, NEB, NEB-TS, Multilevel, MM, QM/MM, CI optimization
   S Lehtola, MJT Oliveira, MAL Marques          : LibXC Library


 Your calculation uses the libint2 library for the computation of 2-el integrals
 For citations please refer to: http://libint.valeyev.net

 Your ORCA version has been built with support for libXC version: 4.2.3
 For citations please refer to: https://tddft.org/programs/libxc/

 This ORCA versions uses:
   CBLAS   interface :  Fast vector & matrix operations
   LAPACKE interface :  Fast linear algebra routines
   SCALAPACK package :  Parallel linear algebra routines


Your calculation utilizes the atom-pairwise dispersion correction
with the Becke-Johnson damping scheme (D3BJ)
Cite in your paper:
S.Grimme, S.Ehrlich, L.Goerigk, J Comput Chem, (2011), 32, 1456–1465 
S.Grimme, J.Antony, S.Ehrlich and H.Krieg, J.Chem.Phys., 132, (2010), 154104 
   

----- Orbital basis set information -----
Your calculation utilizes the basis: aug-cc-pV(T+d)Z 
             Al - Ar: T.H. Dunning, Jr., K. A. Peterson and A. K. Wilson, J. Chem. Phys.
                      114, 9244 (2001)

----- AuxC basis set information -----
Your calculation utilizes the auxiliary basis: def2-TZVP/C
  H-La, Hf-Rn : A. Hellweg, C. Hattig, S. Hofener and W. Klopper, Theor. Chem. Acc. 117, 587 (2007).
        Ce-Lu : J. Chmela and M. E. Harding, Mol. Phys. (2018).

----- AuxJK basis set information -----
Your calculation utilizes the auxiliary basis: def2/JK
   H-Ba, Hf-Rn: F. Weigend, J. Comput. Chem. 29, 167 (2008).

================================================================================
                                        WARNINGS
                       Please study these warnings very carefully!
================================================================================


WARNING: The frozen-core approximation for MP2-gradient calculations is turned on by default.

WARNING: Geometry Optimization
  ===> : Switching off AutoStart
         For restart on a previous wavefunction, please use MOREAD

WARNING: The frozen-core approximation is turned on by default for 
         the MP2 part of double-hybrid DFT.

INFO   : the flag for use of LIBINT has been found!

================================================================================
                                       INPUT FILE
================================================================================
NAME = 07_H2O_6_book.in
|  1> #
|  2> # 07_H2O_6_book b2-plyp/aug-cc-pvt(+d)z
|  3> #
|  4> ! rijk ri-b2plyp d3bj aug-cc-pvt(+d)z def2/jk def2-tzvp/c grid4 nofinalgrid opt xyzfile numfreq
|  5> 
|  6> *xyz 0 1
|  7> O	0.116757	1.553296	0.874144
|  8> H	0.955357	1.526953	0.36374
|  9> H	0.278593	2.140101	1.61497
| 10> O	-0.028991	-1.36957	0.910464
| 11> H	-0.055528	-0.424567	1.109294
| 12> H	-0.872074	-1.539194	0.457007
| 13> O	-2.340721	1.363977	-0.433023
| 14> H	-1.482171	1.543988	-0.013805
| 15> H	-2.349173	1.886417	-1.236377
| 16> O	-2.490803	-1.41279	-0.437012
| 17> H	-2.562332	-0.444637	-0.504051
| 18> H	-3.290032	-1.695404	0.010212
| 19> O	2.424786	1.214249	-0.477895
| 20> H	2.508896	0.237506	-0.500154
| 21> H	2.55493	1.502809	-1.382466
| 22> O	2.31194	-1.486888	-0.434852
| 23> H	1.449966	-1.577886	0.025804
| 24> H	2.919833	-2.054267	0.041233
| 25> *
| 26> 
| 27> %maxcore 5000
| 28> 
| 29> %pal
| 30> nprocs 24
| 31> end
| 32> 
| 33> 
| 34>                          ****END OF INPUT****
================================================================================

                       *****************************
                       * Geometry Optimization Run *
                       *****************************

Geometry optimization settings:
Update method            Update   .... BFGS
Choice of coordinates    CoordSys .... Z-matrix Internals
Initial Hessian          InHess   .... Almoef's Model

Convergence Tolerances:
Energy Change            TolE     ....  5.0000e-06 Eh
Max. Gradient            TolMAXG  ....  3.0000e-04 Eh/bohr
RMS Gradient             TolRMSG  ....  1.0000e-04 Eh/bohr
Max. Displacement        TolMAXD  ....  4.0000e-03 bohr
RMS Displacement         TolRMSD  ....  2.0000e-03 bohr
Strict Convergence                ....  False
------------------------------------------------------------------------------
                        ORCA OPTIMIZATION COORDINATE SETUP
------------------------------------------------------------------------------

The optimization will be done in new redundant internal coordinates
Making redundant internal coordinates   ...  (new redundants) done
Evaluating the initial hessian          ...  (Almloef) done
Evaluating the coordinates              ...  done
Calculating the B-matrix                .... done
Calculating the G-matrix                .... done
Diagonalizing the G-matrix              .... done
The first mode is                       ....  119
The number of degrees of freedom        ....   48

    -----------------------------------------------------------------
                    Redundant Internal Coordinates


    -----------------------------------------------------------------
         Definition                    Initial Value    Approx d2E/dq
    -----------------------------------------------------------------
      1. B(H   1,O   0)                  0.9821         0.479468   
      2. B(H   2,O   0)                  0.9588         0.522197   
      3. B(H   4,O   3)                  0.9661         0.508512   
      4. B(H   4,O   0)                  1.9992         0.011427   
      5. B(H   5,O   3)                  0.9722         0.497156   
      6. B(H   7,O   6)                  0.9722         0.497089   
      7. B(H   7,O   0)                  1.8290         0.021359   
      8. B(H   8,O   6)                  0.9583         0.523160   
      9. B(O   9,H   5)                  1.8535         0.019517   
     10. B(H  10,O   9)                  0.9731         0.495519   
     11. B(H  10,H   7)                  2.3155         0.000764   
     12. B(H  10,H   5)                  2.2313         0.001041   
     13. B(H  10,O   6)                  1.8235         0.021791   
     14. B(H  11,O   9)                  0.9585         0.522905   
     15. B(O  12,H   1)                  1.7220         0.031638   
     16. B(H  13,H   1)                  2.1960         0.001186   
     17. B(H  13,O  12)                  0.9806         0.482041   
     18. B(H  14,O  12)                  0.9584         0.523099   
     19. B(O  15,H  13)                  1.7368         0.029963   
     20. B(H  16,O  15)                  0.9816         0.480341   
     21. B(H  16,H   4)                  2.1842         0.001238   
     22. B(H  16,O   3)                  1.7359         0.030066   
     23. B(H  16,H  13)                  2.1665         0.001321   
     24. B(H  17,O  15)                  0.9582         0.523443   
     25. A(H   1,O   0,H   7)          119.6074         0.199991   
     26. A(H   1,O   0,H   2)          105.8933         0.317823   
     27. A(H   2,O   0,H   7)          121.7208         0.202157   
     28. A(H   2,O   0,H   4)          121.9466         0.187219   
     29. A(H   1,O   0,H   4)           96.2104         0.185339   
     30. A(H   4,O   0,H   7)           88.6667         0.136641   
     31. A(O   0,H   1,H  13)          145.5171         0.135671   
     32. A(O  12,H   1,H  13)           25.5029         0.114226   
     33. A(O   0,H   1,O  12)          170.9471         0.210313   
     34. A(H   4,O   3,H  16)          104.2222         0.210528   
     35. A(H   4,O   3,H   5)          104.0546         0.318325   
     36. A(H   5,O   3,H  16)          118.6979         0.209909   
     37. A(O   0,H   4,O   3)          160.2499         0.186630   
     38. A(O   3,H   4,H  16)           50.3900         0.136764   
     39. A(O   0,H   4,H  16)          113.8689         0.109231   
     40. A(O   3,H   5,H  10)          140.5539         0.134695   
     41. A(O   3,H   5,O   9)          166.0271         0.198643   
     42. A(O   9,H   5,H  10)           25.4751         0.110959   
     43. A(H   7,O   6,H   8)          105.5637         0.319796   
     44. A(H   8,O   6,H  10)          120.4626         0.202717   
     45. A(H   7,O   6,H  10)          107.9236         0.201409   
     46. A(O   6,H   7,H  10)           48.5295         0.131602   
     47. A(O   0,H   7,H  10)          120.9955         0.109896   
     48. A(O   0,H   7,O   6)          169.1964         0.200902   
     49. A(H   5,O   9,H  10)           99.5131         0.198562   
     50. A(H   5,O   9,H  11)          118.8861         0.199904   
     51. A(H  10,O   9,H  11)          105.3202         0.319606   
     52. A(H   5,H  10,H   7)           88.6664         0.097533   
     53. A(H   7,H  10,O   9)          143.6656         0.131572   
     54. A(H   5,H  10,O   6)          112.1913         0.111514   
     55. A(O   6,H  10,O   9)          167.2030         0.201328   
     56. A(H   5,H  10,O   9)           55.0117         0.134661   
     57. A(O   6,H  10,H   7)           23.5469         0.109991   
     58. A(H  13,O  12,H  14)          105.4762         0.318190   
     59. A(H   1,O  12,H  14)          121.5014         0.212728   
     60. A(H   1,O  12,H  13)          105.3765         0.210460   
     61. A(O  12,H  13,O  15)          168.0537         0.208973   
     62. A(H   1,H  13,O  12)           49.1206         0.135728   
     63. A(O  15,H  13,H  16)           26.2981         0.114537   
     64. A(H   1,H  13,H  16)           92.9083         0.098946   
     65. A(O  12,H  13,H  16)          141.9253         0.136889   
     66. A(H   1,H  13,O  15)          119.2064         0.113917   
     67. A(H  13,O  15,H  17)          122.3194         0.211231   
     68. A(H  13,O  15,H  16)          102.0796         0.208877   
     69. A(H  16,O  15,H  17)          105.6076         0.318041   
     70. A(H   4,H  16,H  13)           90.8519         0.099044   
     71. A(H   4,H  16,O  15)          142.1056         0.136152   
     72. A(O   3,H  16,H  13)          116.0783         0.114556   
     73. A(O   3,H  16,O  15)          167.4803         0.208971   
     74. A(H  13,H  16,O  15)           51.6223         0.136851   
     75. A(O   3,H  16,H   4)           25.3878         0.114183   
     76. D(H  13,H   1,O   0,H   4)     -0.0057         0.339672   
     77. D(O  12,H   1,O   0,H   2)    119.4034         0.339672   
     78. D(H  13,H   1,O   0,H   7)    -92.0066         0.339672   
     79. D(O  12,H   1,O   0,H   7)    -98.3574         0.339672   
     80. D(H  13,H   1,O   0,H   2)    125.7542         0.339672   
     81. D(O  12,H   1,O   0,H   4)     -6.3565         0.339672   
     82. D(O   0,H   4,O   3,H  16)     41.3569         0.362059   
     83. D(O   3,H   4,O   0,H   7)     79.9443         0.001582   
     84. D(H  16,H   4,O   0,H   1)     -5.8729         0.001582   
     85. D(H  16,H   4,O   0,H   2)   -118.9822         0.001582   
     86. D(H  16,H   4,O   0,H   7)    113.7687         0.001582   
     87. D(O   0,H   4,O   3,H   5)    -83.6804         0.362059   
     88. D(O   3,H   4,O   0,H   2)   -152.8066         0.001582   
     89. D(H  16,H   4,O   3,H   5)   -125.0373         0.362059   
     90. D(O   3,H   4,O   0,H   1)    -39.6973         0.001582   
     91. D(H  10,H   5,O   3,H  16)   -101.7980         0.341576   
     92. D(H  10,H   5,O   3,H   4)     13.4018         0.341576   
     93. D(O   9,H   5,O   3,H  16)   -101.0106         0.341576   
     94. D(O   9,H   5,O   3,H   4)     14.1891         0.341576   
     95. D(H  10,H   7,O   6,H   8)   -130.0312         0.341457   
     96. D(O   0,H   7,O   6,H  10)    -15.2180         0.341457   
     97. D(O   0,H   7,O   6,H   8)   -145.2492         0.341457   
     98. D(H  10,H   7,O   0,H   2)   -132.9859         0.001794   
     99. D(O   6,H   7,O   0,H   4)      7.7115         0.001794   
    100. D(O   6,H   7,O   0,H   1)    104.0979         0.001794   
    101. D(H  10,H   7,O   0,H   1)     90.8334         0.001794   
    102. D(O   6,H   7,O   0,H   2)   -119.7214         0.001794   
    103. D(H  10,H   7,O   0,H   4)     -5.5530         0.001794   
    104. D(H  11,O   9,H   5,O   3)   -114.6425         0.001723   
    105. D(H  10,O   9,H   5,O   3)     -1.1631         0.001723   
    106. D(H  11,O   9,H   5,H  10)   -113.4795         0.001723   
    107. D(H   7,H  10,O   9,H   5)      1.7205         0.369656   
    108. D(H   7,H  10,O   9,H  11)    125.3459         0.369656   
    109. D(O   6,H  10,O   9,H   5)     -0.1072         0.369656   
    110. D(O   6,H  10,O   9,H  11)    123.5182         0.369656   
    111. D(O   6,H  10,H   7,O   0)    176.7095         0.001507   
    112. D(H   5,H  10,H   7,O   6)   -177.5769         0.001507   
    113. D(H   5,H  10,O   6,H   7)      2.6164         0.001806   
    114. D(H   7,H  10,O   6,H   8)    121.1578         0.001806   
    115. D(H   5,H  10,O   6,H   8)    123.7742         0.001806   
    116. D(O   9,H  10,H   7,O   0)     -2.2773         0.001507   
    117. D(O   9,H  10,O   6,H   8)    123.8690         0.001806   
    118. D(O   9,H  10,O   6,H   7)      2.7112         0.001806   
    119. D(H   7,H  10,H   5,O   9)   -178.9804         0.001512   
    120. D(H   5,H  10,H   7,O   0)     -0.8674         0.001507   
    121. D(H   5,H  10,O   9,H  11)    123.6254         0.369656   
    122. D(O   9,H  10,H   7,O   6)   -178.9868         0.001507   
    123. D(H   7,H  10,H   5,O   3)      0.5776         0.001512   
    124. D(O   6,H  10,H   5,O   9)    179.9744         0.001512   
    125. D(O   6,H  10,H   5,O   3)     -0.4676         0.001512   
    126. D(O   9,H  10,H   5,O   3)    179.5580         0.001512   
    127. D(H  14,O  12,H   1,H  13)    119.5452         0.002109   
    128. D(H  14,O  12,H   1,O   0)    127.9087         0.002109   
    129. D(H  13,O  12,H   1,O   0)      8.3635         0.002109   
    130. D(O  15,H  13,O  12,H   1)     13.2536         0.344366   
    131. D(O  15,H  13,O  12,H  14)   -116.4227         0.344366   
    132. D(H   1,H  13,O  12,H  14)   -129.6763         0.344366   
    133. D(H  16,H  13,H   1,O  12)   -176.8885         0.001515   
    134. D(H  16,H  13,H   1,O   0)      5.4282         0.001515   
    135. D(O  15,H  13,H   1,O  12)   -176.8834         0.001515   
    136. D(O  15,H  13,H   1,O   0)      5.4333         0.001515   
    137. D(H  16,H  13,O  12,H  14)   -124.6333         0.344366   
    138. D(O  12,H  13,H   1,O   0)   -177.6833         0.001515   
    139. D(H  16,H  13,O  12,H   1)      5.0430         0.344366   
    140. D(H  17,O  15,H  13,H  16)   -117.4498         0.002093   
    141. D(H  17,O  15,H  13,H   1)   -117.4613         0.002093   
    142. D(H  17,O  15,H  13,O  12)   -128.9157         0.002093   
    143. D(H  16,O  15,H  13,H   1)     -0.0115         0.002093   
    144. D(H  16,O  15,H  13,O  12)    -11.4659         0.002093   
    145. D(H   4,H  16,O  15,H  13)     -9.3773         0.341260   
    146. D(O   3,H  16,O  15,H  13)    -11.5766         0.341260   
    147. D(O   3,H  16,O  15,H  17)    117.2864         0.341260   
    148. D(H  13,H  16,O  15,H  17)    128.8630         0.341260   
    149. D(H   4,H  16,H  13,H   1)     -5.7542         0.001520   
    150. D(H   4,H  16,H  13,O  12)     -9.5700         0.001520   
    151. D(O   3,H  16,H  13,O  15)    177.2239         0.001520   
    152. D(O   3,H  16,H  13,H   1)     -2.7861         0.001520   
    153. D(O   3,H  16,H  13,O  12)     -6.6019         0.001520   
    154. D(O  15,H  16,H  13,H   1)    179.9900         0.001520   
    155. D(O  15,H  16,H  13,O  12)    176.1742         0.001520   
    156. D(O   3,H  16,H   4,O   0)   -165.8677         0.001517   
    157. D(H  13,H  16,H   4,O   0)      7.9048         0.001517   
    158. D(H  13,H  16,H   4,O   3)    173.7725         0.001517   
    159. D(O  15,H  16,H   4,O   0)     15.2440         0.001517   
    160. D(O  15,H  16,H   4,O   3)   -178.8882         0.001517   
    161. D(H   4,H  16,H  13,O  15)    174.2558         0.001520   
    162. D(H   4,H  16,O   3,H   5)    115.1099         0.002098   
    163. D(H  13,H  16,O   3,H   5)    108.1740         0.002098   
    164. D(H  13,H  16,O   3,H   4)     -6.9359         0.002098   
    165. D(H   4,H  16,O  15,H  17)    119.4857         0.341260   
    166. D(O  15,H  16,O   3,H   5)    118.2613         0.002098   
    167. D(O  15,H  16,O   3,H   4)      3.1515         0.002098   
    -----------------------------------------------------------------

Number of atoms                         .... 18
Number of degrees of freedom            .... 167

         *************************************************************
         *                GEOMETRY OPTIMIZATION CYCLE   1            *
         *************************************************************
---------------------------------
CARTESIAN COORDINATES (ANGSTROEM)
---------------------------------
  O      0.116757    1.553296    0.874144
  H      0.955357    1.526953    0.363740
  H      0.278593    2.140101    1.614970
  O     -0.028991   -1.369570    0.910464
  H     -0.055528   -0.424567    1.109294
  H     -0.872074   -1.539194    0.457007
  O     -2.340721    1.363977   -0.433023
  H     -1.482171    1.543988   -0.013805
  H     -2.349173    1.886417   -1.236377
  O     -2.490803   -1.412790   -0.437012
  H     -2.562332   -0.444637   -0.504051
  H     -3.290032   -1.695404    0.010212
  O      2.424786    1.214249   -0.477895
  H      2.508896    0.237506   -0.500154
  H      2.554930    1.502809   -1.382466
  O      2.311940   -1.486888   -0.434852
  H      1.449966   -1.577886    0.025804
  H      2.919833   -2.054267    0.041233

----------------------------
CARTESIAN COORDINATES (A.U.)
----------------------------
  NO LB      ZA    FRAG     MASS         X           Y           Z
   0 O     8.0000    0    15.999    0.220639    2.935304    1.651893
   1 H     1.0000    0     1.008    1.805363    2.885523    0.687369
   2 H     1.0000    0     1.008    0.526464    4.044205    3.051851
   3 O     8.0000    0    15.999   -0.054785   -2.588112    1.720528
   4 H     1.0000    0     1.008   -0.104933   -0.802315    2.096262
   5 H     1.0000    0     1.008   -1.647981   -2.908655    0.863618
   6 O     8.0000    0    15.999   -4.423322    2.577543   -0.818295
   7 H     1.0000    0     1.008   -2.800897    2.917714   -0.026088
   8 H     1.0000    0     1.008   -4.439294    3.564812   -2.336414
   9 O     8.0000    0    15.999   -4.706936   -2.669786   -0.825833
  10 H     1.0000    0     1.008   -4.842106   -0.840242   -0.952518
  11 H     1.0000    0     1.008   -6.217259   -3.203849    0.019298
  12 O     8.0000    0    15.999    4.582181    2.294598   -0.903091
  13 H     1.0000    0     1.008    4.741126    0.448821   -0.945154
  14 H     1.0000    0     1.008    4.828118    2.839897   -2.612482
  15 O     8.0000    0    15.999    4.368933   -2.809811   -0.821751
  16 H     1.0000    0     1.008    2.740039   -2.981772    0.048762
  17 H     1.0000    0     1.008    5.517685   -3.882002    0.077919

--------------------------------
INTERNAL COORDINATES (ANGSTROEM)
--------------------------------
 O      0   0   0     0.000000000000     0.00000000     0.00000000
 H      1   0   0     0.982067287341     0.00000000     0.00000000
 H      1   2   0     0.958829578808   105.89325923     0.00000000
 O      1   2   3     2.926722958508    91.27121310   230.15359168
 H      4   1   2     0.966058099328    13.34597984   140.56968714
 H      4   1   2     0.972205995206   102.21849031   239.98902584
 O      1   2   3     2.789932861223   120.45305600   146.45374593
 H      7   1   2     0.972242662171     7.05835468   281.98792720
 H      7   1   2     0.958328043636   111.31762838   318.10503051
 O      6   4   1     1.853518685910   166.02711390     0.61250431
 H     10   6   4     0.973103723542    99.51313706   358.83694273
 H     10   6   4     0.958460731388   118.88606425   245.35748984
 O      2   1   3     1.722020572143   170.94714904   119.40344896
 H     13   2   1     0.980610444178   105.37651580     8.36351624
 H     13   2   1     0.958359550679   121.50142387   127.90872660
 O     14  13   2     1.736833522355   168.05371103    13.25357471
 H     16  14  13     0.981572087529   102.07957252   348.53406319
 H     16  14  13     0.958180440374   122.31942840   231.08426767

---------------------------
INTERNAL COORDINATES (A.U.)
---------------------------
 O      0   0   0     0.000000000000     0.00000000     0.00000000
 H      1   0   0     1.855838218157     0.00000000     0.00000000
 H      1   2   0     1.811925313050   105.89325923     0.00000000
 O      1   2   3     5.530704861441    91.27121310   230.15359168
 H      4   1   2     1.825585237187    13.34597984   140.56968714
 H      4   1   2     1.837203076695   102.21849031   239.98902584
 O      1   2   3     5.272209039739   120.45305600   146.45374593
 H      7   1   2     1.837272367217     7.05835468   281.98792720
 H      7   1   2     1.810977548929   111.31762838   318.10503051
 O      6   4   1     3.502642700476   166.02711390     0.61250431
 H     10   6   4     1.838899537393    99.51313706   358.83694273
 H     10   6   4     1.811228292441   118.88606425   245.35748984
 O      2   1   3     3.254147278328   170.94714904   119.40344896
 H     13   2   1     1.853085183558   105.37651580     8.36351624
 H     13   2   1     1.811037088610   121.50142387   127.90872660
 O     14  13   2     3.282139697465   168.05371103    13.25357471
 H     16  14  13     1.854902426131   102.07957252   348.53406319
 H     16  14  13     1.810698619187   122.31942840   231.08426767

---------------------
BASIS SET INFORMATION
---------------------
There are 2 groups of distinct atoms

 Group   1 Type O   : 19s6p3d2f contracted to 5s4p3d2f pattern {88111/3111/111/11}
 Group   2 Type H   : 6s3p2d contracted to 4s3p2d pattern {3111/111/11}

Atom   0O    basis set group =>   1
Atom   1H    basis set group =>   2
Atom   2H    basis set group =>   2
Atom   3O    basis set group =>   1
Atom   4H    basis set group =>   2
Atom   5H    basis set group =>   2
Atom   6O    basis set group =>   1
Atom   7H    basis set group =>   2
Atom   8H    basis set group =>   2
Atom   9O    basis set group =>   1
Atom  10H    basis set group =>   2
Atom  11H    basis set group =>   2
Atom  12O    basis set group =>   1
Atom  13H    basis set group =>   2
Atom  14H    basis set group =>   2
Atom  15O    basis set group =>   1
Atom  16H    basis set group =>   2
Atom  17H    basis set group =>   2
---------------------------------
AUXILIARY/C BASIS SET INFORMATION
---------------------------------
There are 2 groups of distinct atoms

 Group   1 Type O   : 8s6p5d3f1g contracted to 8s6p4d3f1g pattern {11111111/111111/2111/111/1}
 Group   2 Type H   : 4s3p2d contracted to 4s2p1d pattern {1111/21/2}

Atom   0O    basis set group =>   1
Atom   1H    basis set group =>   2
Atom   2H    basis set group =>   2
Atom   3O    basis set group =>   1
Atom   4H    basis set group =>   2
Atom   5H    basis set group =>   2
Atom   6O    basis set group =>   1
Atom   7H    basis set group =>   2
Atom   8H    basis set group =>   2
Atom   9O    basis set group =>   1
Atom  10H    basis set group =>   2
Atom  11H    basis set group =>   2
Atom  12O    basis set group =>   1
Atom  13H    basis set group =>   2
Atom  14H    basis set group =>   2
Atom  15O    basis set group =>   1
Atom  16H    basis set group =>   2
Atom  17H    basis set group =>   2
----------------------------------
AUXILIARY/JK BASIS SET INFORMATION
----------------------------------
There are 2 groups of distinct atoms

 Group   1 Type O   : 14s10p6d2f1g contracted to 10s8p4d2f1g pattern {5111111111/31111111/3111/11/1}
 Group   2 Type H   : 4s2p2d contracted to 2s2p2d pattern {31/11/11}

Atom   0O    basis set group =>   1
Atom   1H    basis set group =>   2
Atom   2H    basis set group =>   2
Atom   3O    basis set group =>   1
Atom   4H    basis set group =>   2
Atom   5H    basis set group =>   2
Atom   6O    basis set group =>   1
Atom   7H    basis set group =>   2
Atom   8H    basis set group =>   2
Atom   9O    basis set group =>   1
Atom  10H    basis set group =>   2
Atom  11H    basis set group =>   2
Atom  12O    basis set group =>   1
Atom  13H    basis set group =>   2
Atom  14H    basis set group =>   2
Atom  15O    basis set group =>   1
Atom  16H    basis set group =>   2
Atom  17H    basis set group =>   2


           ************************************************************
           *        Program running with 24 parallel MPI-processes    *
           *              working on a common directory               *
           ************************************************************
------------------------------------------------------------------------------
                           ORCA GTO INTEGRAL CALCULATION
                           -- RI-GTO INTEGRALS CHOSEN --
------------------------------------------------------------------------------

                         BASIS SET STATISTICS AND STARTUP INFO

Gaussian basis set:
 # of primitive gaussian shells          ...  312
 # of primitive gaussian functions       ...  696
 # of contracted shells                  ...  192
 # of contracted basis functions         ...  552
 Highest angular momentum                ...    3
 Maximum contraction depth               ...    8
Auxiliary gaussian basis set:
 # of primitive gaussian shells          ...  294
 # of primitive gaussian functions       ...  822
 # of contracted shells                  ...  222
 # of contracted aux-basis functions     ...  678
 Highest angular momentum                ...    4
 Maximum contraction depth               ...    5
Ratio of auxiliary to basis functions    ...  1.23
Integral package used                  ... LIBINT
 One Electron integrals                  ... done
 Ordering auxiliary basis shells         ... done
 Integral threshhold             Thresh  ...  2.500e-11
 Primitive cut-off               TCut    ...  2.500e-12
 Pre-screening matrix                    ... done
 Shell pair data                         ... 
 Ordering of the shell pairs             ... done (   0.003 sec) 17028 of 18528 pairs
 Determination of significant pairs      ... done (   0.000 sec)
 Creation of shell pair data             ... done (   0.002 sec)
 Storage of shell pair data              ... done (   0.003 sec)
 Shell pair data done in (   0.008 sec)
 Computing two index integrals           ... done
 Cholesky decomposition of the V-matrix  ... done


Timings:
 Total evaluation time                   ...   0.404 sec (  0.007 min)
 One electron matrix time                ...   0.078 sec (  0.001 min) = 19.3%
 Schwartz matrix evaluation time         ...   0.208 sec (  0.003 min) = 51.4%
 Two index repulsion integral time       ...   0.009 sec (  0.000 min) =  2.2%
 Cholesky decomposition of V             ...   0.077 sec (  0.001 min) = 19.2%
 Three index repulsion integral time     ...   0.000 sec (  0.000 min) =  0.0%



           ************************************************************
           *        Program running with 24 parallel MPI-processes    *
           *              working on a common directory               *
           ************************************************************
-------------------------------------------------------------------------------
                                 ORCA SCF
-------------------------------------------------------------------------------

------------
SCF SETTINGS
------------
Hamiltonian:
 Density Functional     Method          .... DFT(GTOs)
 Exchange Functional    Exchange        .... B88
   X-Alpha parameter    XAlpha          ....  0.666667
   Becke's b parameter  XBeta           ....  0.004200
 Correlation Functional Correlation     .... LYP
 LDA part of GGA corr.  LDAOpt          .... VWN-3
 Gradients option       PostSCFGGA      .... off
 Hybrid DFT is turned on
   Fraction HF Exchange ScalHFX         ....  0.530000
   Scaling of DF-GGA-X  ScalDFX         ....  0.470000
   Scaling of DF-GGA-C  ScalDFC         ....  0.730000
   Scaling of DF-LDA-C  ScalLDAC        ....  0.730000
   Perturbative correction              ....  0.270000
   Density functional embedding theory  .... OFF
 RI-approximation to the Coulomb term is turned on
   Number of auxiliary basis functions  .... 678
   RI-JK (J+K treated both via RI)      .... on


General Settings:
 Integral files         IntName         .... 07_H2O_6_book
 Hartree-Fock type      HFTyp           .... RHF
 Total Charge           Charge          ....    0
 Multiplicity           Mult            ....    1
 Number of Electrons    NEL             ....   60
 Basis Dimension        Dim             ....  552
 Nuclear Repulsion      ENuc            ....    284.3088335758 Eh

Convergence Acceleration:
 DIIS                   CNVDIIS         .... on
   Start iteration      DIISMaxIt       ....    12
   Startup error        DIISStart       ....  0.200000
   # of expansion vecs  DIISMaxEq       ....     5
   Bias factor          DIISBfac        ....   1.050
   Max. coefficient     DIISMaxC        ....  10.000
 Newton-Raphson         CNVNR           .... off
 SOSCF                  CNVSOSCF        .... on
   Start iteration      SOSCFMaxIt      ....   150
   Startup grad/error   SOSCFStart      ....  0.003300
 Level Shifting         CNVShift        .... on
   Level shift para.    LevelShift      ....    0.2500
   Turn off err/grad.   ShiftErr        ....    0.0010
 Zerner damping         CNVZerner       .... off
 Static damping         CNVDamp         .... on
   Fraction old density DampFac         ....    0.7000
   Max. Damping (<1)    DampMax         ....    0.9800
   Min. Damping (>=0)   DampMin         ....    0.0000
   Turn off err/grad.   DampErr         ....    0.1000
 Fernandez-Rico         CNVRico         .... off

SCF Procedure:
 Maximum # iterations   MaxIter         ....   125
 SCF integral mode      SCFMode         .... Direct
   Integral package                     .... LIBINT
 Reset frequency        DirectResetFreq ....    20
 Integral Threshold     Thresh          ....  2.500e-11 Eh
 Primitive CutOff       TCut            ....  2.500e-12 Eh

Convergence Tolerance:
 Convergence Check Mode ConvCheckMode   .... Total+1el-Energy
 Convergence forced     ConvForced      .... 0
 Energy Change          TolE            ....  1.000e-08 Eh
 1-El. energy change                    ....  1.000e-05 Eh
 Orbital Gradient       TolG            ....  1.000e-05
 Orbital Rotation angle TolX            ....  1.000e-05
 DIIS Error             TolErr          ....  5.000e-07


Diagonalization of the overlap matrix:
Smallest eigenvalue                        ... 3.910e-05
Time for diagonalization                   ...    0.054 sec
Threshold for overlap eigenvalues          ... 1.000e-08
Number of eigenvalues below threshold      ... 0
Time for construction of square roots      ...    0.043 sec
Total time needed                          ...    0.098 sec

-------------------
DFT GRID GENERATION
-------------------

General Integration Accuracy     IntAcc      ...  4.670
Radial Grid Type                 RadialGrid  ... Gauss-Chebyshev
Angular Grid (max. acc.)         AngularGrid ... Lebedev-302
Angular grid pruning method      GridPruning ... 3 (G Style)
Weight generation scheme         WeightScheme... Becke
Basis function cutoff            BFCut       ...    1.0000e-11
Integration weight cutoff        WCut        ...    1.0000e-14
Grids for H and He will be reduced by one unit

# of grid points (after initial pruning)     ...  78000 (   0.0 sec)
# of grid points (after weights+screening)   ...  72363 (   0.0 sec)
nearest neighbour list constructed           ...    0.0 sec
Grid point re-assignment to atoms done       ...    0.0 sec
Grid point division into batches done        ...    0.2 sec
Reduced shell lists constructed in    0.3 sec

Total number of grid points                  ...    72363
Total number of batches                      ...     1140
Average number of points per batch           ...       63
Average number of grid points per atom       ...     4020
Average number of shells per batch           ...   142.39 (74.16%)
Average number of basis functions per batch  ...   398.02 (72.11%)
Average number of large shells per batch     ...   115.82 (81.34%)
Average number of large basis fcns per batch ...   317.00 (79.64%)
Average number of aux-shells per batch       ...   142.39 (64.14%)
Average number of aux functions per batch    ...   398.02 (58.71%)
Maximum spatial batch extension              ...   2.10,  2.67,  2.00 au
Average spatial batch extension              ...   0.04,  0.04,  0.04 au

Time for grid setup =    0.356 sec

------------------------------
INITIAL GUESS: MODEL POTENTIAL
------------------------------
Loading Hartree-Fock densities                     ... done
Calculating cut-offs                               ... done
Setting up the integral package                    ... done
Initializing the effective Hamiltonian             ... done
Starting the Coulomb interaction                   ... done (   0.0 sec)
Reading the grid                                   ... done
Mapping shells                                     ... done
Starting the XC term evaluation                    ... done (   0.1 sec)
  promolecular density results
     # of electrons  =     59.994928870
     EX              =    -52.750196841
     EC              =     -0.679072351
     EX+EC           =    -53.429269192
Transforming the Hamiltonian                       ... done (   0.0 sec)
Diagonalizing the Hamiltonian                      ... done (   0.0 sec)
Back transforming the eigenvectors                 ... done (   0.0 sec)
Now organizing SCF variables                       ... done
                      ------------------
                      INITIAL GUESS DONE (   0.7 sec)
                      ------------------
--------------
SCF ITERATIONS
--------------
ITER       Energy         Delta-E        Max-DP      RMS-DP      [F,P]     Damp
  0   -457.5562144227   0.000000000000 0.04676445  0.00060220  0.3477831 0.7000
  1   -457.2239820626   0.332232360166 0.03709915  0.00055990  0.2514039 0.7000
                               ***Turning on DIIS***
  2   -457.3849572787  -0.160975216140 0.04169233  0.00083960  0.0978309 0.0000
  3   -457.8769678593  -0.492010580598 0.01133048  0.00014705  0.1892463 0.7000
  4   -458.0311956738  -0.154227814500 0.00898813  0.00014020  0.1696685 0.7000
  5   -458.0628882923  -0.031692618458 0.00679502  0.00011437  0.1347868 0.7000
  6   -458.0684809255  -0.005592633245 0.00545557  0.00009320  0.1047040 0.7000
  7   -458.0684406954   0.000040230145 0.02575995  0.00040993  0.0808207 0.0000
  8   -458.0316175556   0.036823139804 0.00536653  0.00005859  0.0168840 0.0000
  9   -458.0326392356  -0.001021680007 0.00102730  0.00001649  0.0050114 0.0000
                      *** Initiating the SOSCF procedure ***
                           *** Shutting down DIIS ***
                      *** Re-Reading the Fockian *** 
                      *** Removing any level shift *** 
ITER      Energy       Delta-E        Grad      Rot      Max-DP    RMS-DP
 10   -458.03272316  -0.0000839224  0.000165  0.000165  0.000367  0.000006
 11   -458.03273271  -0.0000095491  0.000102  0.000109  0.000294  0.000005
 12   -458.03273277  -0.0000000654  0.000098  0.000041  0.000170  0.000002
 13   -458.03273421  -0.0000014328  0.000003  0.000003  0.000014  0.000000
                  ***Gradient check signals convergence***
              ***Rediagonalizing the Fockian in SOSCF/NRSCF***

               *****************************************************
               *                     SUCCESS                       *
               *           SCF CONVERGED AFTER  14 CYCLES          *
               *****************************************************


----------------
TOTAL SCF ENERGY
----------------

Total Energy       :         -458.03273421 Eh          -12463.70434 eV

Components:
Nuclear Repulsion  :          284.30883358 Eh            7736.43667 eV
Electronic Energy  :         -742.34156778 Eh          -20200.14101 eV
One Electron Energy:        -1196.92549432 Eh          -32569.99853 eV
Two Electron Energy:          454.58392654 Eh           12369.85751 eV

Virial components:
Potential Energy   :         -914.28226325 Eh          -24878.88520 eV
Kinetic Energy     :          456.24952904 Eh           12415.18086 eV
Virial Ratio       :            2.00390840


DFT components:
N(Alpha)           :       30.000147732043 electrons
N(Beta)            :       30.000147732043 electrons
N(Total)           :       60.000295464085 electrons
E(X)               :      -25.338480998598 Eh       
E(C)               :       -1.518148966852 Eh       
E(XC)              :      -26.856629965450 Eh       
DFET-embed. en.    :        0.000000000000 Eh       

---------------
SCF CONVERGENCE
---------------

  Last Energy change         ...   -1.0518e-09  Tolerance :   1.0000e-08
  Last MAX-Density change    ...    8.1193e-06  Tolerance :   1.0000e-07
  Last RMS-Density change    ...    9.9131e-08  Tolerance :   5.0000e-09
  Last Orbital Gradient      ...    1.9295e-06  Tolerance :   1.0000e-05
  Last Orbital Rotation      ...    1.8623e-06  Tolerance :   1.0000e-05

             **** THE GBW FILE WAS UPDATED (07_H2O_6_book.gbw) ****
             **** DENSITY FILE WAS UPDATED (07_H2O_6_book.scfp) ****
             **** ENERGY FILE WAS UPDATED (07_H2O_6_book.en.tmp) ****
             **** THE GBW FILE WAS UPDATED (07_H2O_6_book.gbw) ****
             **** DENSITY FILE WAS UPDATED (07_H2O_6_book.scfp) ****
----------------
ORBITAL ENERGIES
----------------

  NO   OCC          E(Eh)            E(eV) 
   0   2.0000     -19.744800      -537.2833 
   1   2.0000     -19.734408      -537.0006 
   2   2.0000     -19.732782      -536.9563 
   3   2.0000     -19.721908      -536.6604 
   4   2.0000     -19.721675      -536.6541 
   5   2.0000     -19.708411      -536.2931 
   6   2.0000      -1.176406       -32.0116 
   7   2.0000      -1.162018       -31.6201 
   8   2.0000      -1.156953       -31.4823 
   9   2.0000      -1.148201       -31.2441 
  10   2.0000      -1.143700       -31.1217 
  11   2.0000      -1.128333       -30.7035 
  12   2.0000      -0.634344       -17.2614 
  13   2.0000      -0.623027       -16.9534 
  14   2.0000      -0.619318       -16.8525 
  15   2.0000      -0.608645       -16.5621 
  16   2.0000      -0.604586       -16.4516 
  17   2.0000      -0.590922       -16.0798 
  18   2.0000      -0.523519       -14.2457 
  19   2.0000      -0.497156       -13.5283 
  20   2.0000      -0.485177       -13.2023 
  21   2.0000      -0.473086       -12.8733 
  22   2.0000      -0.460259       -12.5243 
  23   2.0000      -0.438965       -11.9448 
  24   2.0000      -0.415111       -11.2957 
  25   2.0000      -0.404858       -11.0168 
  26   2.0000      -0.404155       -10.9976 
  27   2.0000      -0.394063       -10.7230 
  28   2.0000      -0.389863       -10.6087 
  29   2.0000      -0.380610       -10.3569 
  30   0.0000      -0.003564        -0.0970 
  31   0.0000       0.015203         0.4137 
  32   0.0000       0.020271         0.5516 
  33   0.0000       0.020860         0.5676 
  34   0.0000       0.032077         0.8729 
  35   0.0000       0.051287         1.3956 
  36   0.0000       0.054090         1.4719 
  37   0.0000       0.056574         1.5395 
  38   0.0000       0.060736         1.6527 
  39   0.0000       0.066785         1.8173 
  40   0.0000       0.071280         1.9396 
  41   0.0000       0.084267         2.2930 
  42   0.0000       0.100863         2.7446 
  43   0.0000       0.115304         3.1376 
  44   0.0000       0.120697         3.2843 
  45   0.0000       0.121338         3.3018 
  46   0.0000       0.124673         3.3925 
  47   0.0000       0.125734         3.4214 
  48   0.0000       0.132378         3.6022 
  49   0.0000       0.144412         3.9297 
  50   0.0000       0.146788         3.9943 
  51   0.0000       0.159025         4.3273 
  52   0.0000       0.166081         4.5193 
  53   0.0000       0.170419         4.6373 
  54   0.0000       0.175046         4.7633 
  55   0.0000       0.179442         4.8829 
  56   0.0000       0.180125         4.9015 
  57   0.0000       0.187964         5.1148 
  58   0.0000       0.190794         5.1918 
  59   0.0000       0.195072         5.3082 
  60   0.0000       0.200694         5.4611 
  61   0.0000       0.206192         5.6108 
  62   0.0000       0.208753         5.6805 
  63   0.0000       0.215912         5.8753 
  64   0.0000       0.217770         5.9258 
  65   0.0000       0.227149         6.1810 
  66   0.0000       0.240519         6.5449 
  67   0.0000       0.248374         6.7586 
  68   0.0000       0.255658         6.9568 
  69   0.0000       0.264523         7.1980 
  70   0.0000       0.270345         7.3565 
  71   0.0000       0.280529         7.6336 
  72   0.0000       0.287497         7.8232 
  73   0.0000       0.302391         8.2285 
  74   0.0000       0.311170         8.4674 
  75   0.0000       0.317414         8.6373 
  76   0.0000       0.322522         8.7763 
  77   0.0000       0.326881         8.8949 
  78   0.0000       0.332858         9.0575 
  79   0.0000       0.338306         9.2058 
  80   0.0000       0.343226         9.3396 
  81   0.0000       0.344672         9.3790 
  82   0.0000       0.356939         9.7128 
  83   0.0000       0.362826         9.8730 
  84   0.0000       0.366287         9.9672 
  85   0.0000       0.374262        10.1842 
  86   0.0000       0.375629        10.2214 
  87   0.0000       0.378319        10.2946 
  88   0.0000       0.383527        10.4363 
  89   0.0000       0.385679        10.4949 
  90   0.0000       0.389633        10.6025 
  91   0.0000       0.397666        10.8210 
  92   0.0000       0.399855        10.8806 
  93   0.0000       0.404850        11.0165 
  94   0.0000       0.408577        11.1179 
  95   0.0000       0.412080        11.2133 
  96   0.0000       0.417755        11.3677 
  97   0.0000       0.428563        11.6618 
  98   0.0000       0.434371        11.8198 
  99   0.0000       0.438700        11.9376 
 100   0.0000       0.440570        11.9885 
 101   0.0000       0.444364        12.0918 
 102   0.0000       0.449189        12.2231 
 103   0.0000       0.456255        12.4153 
 104   0.0000       0.459897        12.5144 
 105   0.0000       0.474816        12.9204 
 106   0.0000       0.485870        13.2212 
 107   0.0000       0.500870        13.6294 
 108   0.0000       0.507294        13.8042 
 109   0.0000       0.516718        14.0606 
 110   0.0000       0.527196        14.3457 
 111   0.0000       0.528612        14.3843 
 112   0.0000       0.541630        14.7385 
 113   0.0000       0.561423        15.2771 
 114   0.0000       0.575822        15.6689 
 115   0.0000       0.584856        15.9147 
 116   0.0000       0.594397        16.1744 
 117   0.0000       0.598239        16.2789 
 118   0.0000       0.613404        16.6916 
 119   0.0000       0.624029        16.9807 
 120   0.0000       0.647551        17.6208 
 121   0.0000       0.665454        18.1079 
 122   0.0000       0.667618        18.1668 
 123   0.0000       0.684762        18.6333 
 124   0.0000       0.693067        18.8593 
 125   0.0000       0.697288        18.9742 
 126   0.0000       0.701178        19.0800 
 127   0.0000       0.706791        19.2328 
 128   0.0000       0.717488        19.5238 
 129   0.0000       0.731244        19.8982 
 130   0.0000       0.732236        19.9252 
 131   0.0000       0.739132        20.1128 
 132   0.0000       0.746726        20.3194 
 133   0.0000       0.755593        20.5607 
 134   0.0000       0.760748        20.7010 
 135   0.0000       0.768706        20.9176 
 136   0.0000       0.777265        21.1505 
 137   0.0000       0.782588        21.2953 
 138   0.0000       0.787683        21.4340 
 139   0.0000       0.794998        21.6330 
 140   0.0000       0.807909        21.9843 
 141   0.0000       0.812062        22.0973 
 142   0.0000       0.824548        22.4371 
 143   0.0000       0.829447        22.5704 
 144   0.0000       0.834843        22.7172 
 145   0.0000       0.842576        22.9277 
 146   0.0000       0.852520        23.1982 
 147   0.0000       0.859977        23.4012 
 148   0.0000       0.865089        23.5403 
 149   0.0000       0.871188        23.7062 
 150   0.0000       0.881874        23.9970 
 151   0.0000       0.887633        24.1537 
 152   0.0000       0.888480        24.1768 
 153   0.0000       0.895897        24.3786 
 154   0.0000       0.900204        24.4958 
 155   0.0000       0.903181        24.5768 
 156   0.0000       0.905724        24.6460 
 157   0.0000       0.912237        24.8232 
 158   0.0000       0.921754        25.0822 
 159   0.0000       0.924057        25.1449 
 160   0.0000       0.933053        25.3897 
 161   0.0000       0.936605        25.4863 
 162   0.0000       0.949144        25.8275 
 163   0.0000       0.954111        25.9627 
 164   0.0000       0.961717        26.1697 
 165   0.0000       0.964564        26.2471 
 166   0.0000       0.970534        26.4096 
 167   0.0000       0.975577        26.5468 
 168   0.0000       0.982394        26.7323 
 169   0.0000       0.985292        26.8112 
 170   0.0000       0.999839        27.2070 
 171   0.0000       1.010141        27.4873 
 172   0.0000       1.016628        27.6638 
 173   0.0000       1.018983        27.7279 
 174   0.0000       1.026721        27.9385 
 175   0.0000       1.058421        28.8011 
 176   0.0000       1.063422        28.9372 
 177   0.0000       1.075966        29.2785 
 178   0.0000       1.081693        29.4344 
 179   0.0000       1.082952        29.4686 
 180   0.0000       1.088498        29.6195 
 181   0.0000       1.097177        29.8557 
 182   0.0000       1.111659        30.2498 
 183   0.0000       1.114713        30.3329 
 184   0.0000       1.127561        30.6825 
 185   0.0000       1.133449        30.8427 
 186   0.0000       1.152169        31.3521 
 187   0.0000       1.156830        31.4789 
 188   0.0000       1.158974        31.5373 
 189   0.0000       1.161656        31.6103 
 190   0.0000       1.169060        31.8118 
 191   0.0000       1.181218        32.1426 
 192   0.0000       1.184628        32.2354 
 193   0.0000       1.190272        32.3889 
 194   0.0000       1.201290        32.6888 
 195   0.0000       1.203561        32.7506 
 196   0.0000       1.213219        33.0134 
 197   0.0000       1.231944        33.5229 
 198   0.0000       1.237920        33.6855 
 199   0.0000       1.244185        33.8560 
 200   0.0000       1.252087        34.0710 
 201   0.0000       1.265300        34.4306 
 202   0.0000       1.274548        34.6822 
 203   0.0000       1.283270        34.9195 
 204   0.0000       1.289534        35.0900 
 205   0.0000       1.295511        35.2526 
 206   0.0000       1.316471        35.8230 
 207   0.0000       1.320401        35.9299 
 208   0.0000       1.327649        36.1272 
 209   0.0000       1.338476        36.4218 
 210   0.0000       1.354412        36.8554 
 211   0.0000       1.364749        37.1367 
 212   0.0000       1.372698        37.3530 
 213   0.0000       1.392858        37.9016 
 214   0.0000       1.400801        38.1177 
 215   0.0000       1.410329        38.3770 
 216   0.0000       1.419266        38.6202 
 217   0.0000       1.424773        38.7700 
 218   0.0000       1.442596        39.2550 
 219   0.0000       1.452065        39.5127 
 220   0.0000       1.456209        39.6255 
 221   0.0000       1.467796        39.9408 
 222   0.0000       1.470535        40.0153 
 223   0.0000       1.478468        40.2312 
 224   0.0000       1.518956        41.3329 
 225   0.0000       1.521589        41.4045 
 226   0.0000       1.529660        41.6242 
 227   0.0000       1.550453        42.1900 
 228   0.0000       1.552897        42.2565 
 229   0.0000       1.561750        42.4974 
 230   0.0000       1.570102        42.7247 
 231   0.0000       1.593234        43.3541 
 232   0.0000       1.607380        43.7390 
 233   0.0000       1.607837        43.7515 
 234   0.0000       1.624483        44.2044 
 235   0.0000       1.636026        44.5185 
 236   0.0000       1.644350        44.7450 
 237   0.0000       1.657591        45.1054 
 238   0.0000       1.669719        45.4354 
 239   0.0000       1.680706        45.7343 
 240   0.0000       1.685608        45.8677 
 241   0.0000       1.699022        46.2327 
 242   0.0000       1.701805        46.3085 
 243   0.0000       1.713723        46.6328 
 244   0.0000       1.731956        47.1289 
 245   0.0000       1.742027        47.4030 
 246   0.0000       1.752227        47.6805 
 247   0.0000       1.761057        47.9208 
 248   0.0000       1.774856        48.2963 
 249   0.0000       1.804478        49.1023 
 250   0.0000       1.823261        49.6135 
 251   0.0000       1.833211        49.8842 
 252   0.0000       1.854860        50.4733 
 253   0.0000       1.873655        50.9848 
 254   0.0000       1.875179        51.0262 
 255   0.0000       1.898219        51.6532 
 256   0.0000       1.905424        51.8492 
 257   0.0000       1.908059        51.9209 
 258   0.0000       1.921295        52.2811 
 259   0.0000       1.924312        52.3632 
 260   0.0000       1.947934        53.0060 
 261   0.0000       1.956373        53.2356 
 262   0.0000       1.994033        54.2604 
 263   0.0000       1.999244        54.4022 
 264   0.0000       2.026143        55.1341 
 265   0.0000       2.042560        55.5809 
 266   0.0000       2.075125        56.4670 
 267   0.0000       2.092175        56.9310 
 268   0.0000       2.150177        58.5093 
 269   0.0000       2.159537        58.7640 
 270   0.0000       2.211614        60.1811 
 271   0.0000       2.224596        60.5343 
 272   0.0000       2.227713        60.6192 
 273   0.0000       2.245309        61.0980 
 274   0.0000       2.262939        61.5777 
 275   0.0000       2.284884        62.1749 
 276   0.0000       2.289058        62.2884 
 277   0.0000       2.297173        62.5092 
 278   0.0000       2.303628        62.6849 
 279   0.0000       2.318389        63.0866 
 280   0.0000       2.324600        63.2556 
 281   0.0000       2.330403        63.4135 
 282   0.0000       2.345289        63.8185 
 283   0.0000       2.346909        63.8627 
 284   0.0000       2.374540        64.6145 
 285   0.0000       2.385331        64.9082 
 286   0.0000       2.400928        65.3326 
 287   0.0000       2.404271        65.4235 
 288   0.0000       2.411053        65.6081 
 289   0.0000       2.418931        65.8225 
 290   0.0000       2.431108        66.1538 
 291   0.0000       2.440823        66.4182 
 292   0.0000       2.449317        66.6493 
 293   0.0000       2.456537        66.8458 
 294   0.0000       2.475656        67.3660 
 295   0.0000       2.479885        67.4811 
 296   0.0000       2.491829        67.8061 
 297   0.0000       2.503888        68.1343 
 298   0.0000       2.514676        68.4278 
 299   0.0000       2.529386        68.8281 
 300   0.0000       2.546961        69.3063 
 301   0.0000       2.561004        69.6885 
 302   0.0000       2.570909        69.9580 
 303   0.0000       2.585045        70.3427 
 304   0.0000       2.594311        70.5948 
 305   0.0000       2.608267        70.9746 
 306   0.0000       2.618806        71.2613 
 307   0.0000       2.628660        71.5295 
 308   0.0000       2.647261        72.0356 
 309   0.0000       2.661748        72.4298 
 310   0.0000       2.673023        72.7367 
 311   0.0000       2.682792        73.0025 
 312   0.0000       2.684969        73.0617 
 313   0.0000       2.699904        73.4681 
 314   0.0000       2.713921        73.8496 
 315   0.0000       2.725603        74.1674 
 316   0.0000       2.731878        74.3382 
 317   0.0000       2.739972        74.5584 
 318   0.0000       2.766844        75.2897 
 319   0.0000       2.770352        75.3851 
 320   0.0000       2.790941        75.9454 
 321   0.0000       2.793366        76.0114 
 322   0.0000       2.808617        76.4264 
 323   0.0000       2.819857        76.7322 
 324   0.0000       2.828060        76.9554 
 325   0.0000       2.841018        77.3080 
 326   0.0000       2.867973        78.0415 
 327   0.0000       2.874819        78.2278 
 328   0.0000       2.888651        78.6042 
 329   0.0000       2.895422        78.7884 
 330   0.0000       2.907731        79.1234 
 331   0.0000       2.919803        79.4519 
 332   0.0000       2.932097        79.7864 
 333   0.0000       2.942491        80.0693 
 334   0.0000       2.964406        80.6656 
 335   0.0000       2.978452        81.0478 
 336   0.0000       2.990109        81.3650 
 337   0.0000       3.003318        81.7244 
 338   0.0000       3.020696        82.1973 
 339   0.0000       3.042982        82.8038 
 340   0.0000       3.055835        83.1535 
 341   0.0000       3.066822        83.4525 
 342   0.0000       3.081625        83.8553 
 343   0.0000       3.119007        84.8725 
 344   0.0000       3.127375        85.1002 
 345   0.0000       3.153286        85.8053 
 346   0.0000       3.174691        86.3877 
 347   0.0000       3.246848        88.3512 
 348   0.0000       3.700250       100.6889 
 349   0.0000       3.713219       101.0418 
 350   0.0000       3.722001       101.2808 
 351   0.0000       3.755009       102.1790 
 352   0.0000       3.780454       102.8714 
 353   0.0000       3.886752       105.7639 
 354   0.0000       3.907785       106.3362 
 355   0.0000       3.948875       107.4544 
 356   0.0000       3.953339       107.5758 
 357   0.0000       3.967000       107.9476 
 358   0.0000       3.971556       108.0715 
 359   0.0000       3.990063       108.5751 
 360   0.0000       3.993975       108.6816 
 361   0.0000       4.011909       109.1696 
 362   0.0000       4.020590       109.4058 
 363   0.0000       4.023456       109.4838 
 364   0.0000       4.038606       109.8961 
 365   0.0000       4.052253       110.2674 
 366   0.0000       4.093920       111.4012 
 367   0.0000       4.101659       111.6118 
 368   0.0000       4.104212       111.6813 
 369   0.0000       4.116697       112.0210 
 370   0.0000       4.130360       112.3928 
 371   0.0000       4.135762       112.5398 
 372   0.0000       4.145629       112.8083 
 373   0.0000       4.151821       112.9768 
 374   0.0000       4.153660       113.0268 
 375   0.0000       4.171504       113.5124 
 376   0.0000       4.183951       113.8511 
 377   0.0000       4.193811       114.1194 
 378   0.0000       4.197027       114.2069 
 379   0.0000       4.215211       114.7017 
 380   0.0000       4.232932       115.1839 
 381   0.0000       4.251782       115.6969 
 382   0.0000       4.267609       116.1276 
 383   0.0000       4.295367       116.8829 
 384   0.0000       4.321882       117.6044 
 385   0.0000       4.338895       118.0673 
 386   0.0000       4.342312       118.1603 
 387   0.0000       4.362660       118.7140 
 388   0.0000       4.366708       118.8242 
 389   0.0000       4.389655       119.4486 
 390   0.0000       4.395629       119.6111 
 391   0.0000       4.403353       119.8213 
 392   0.0000       4.418424       120.2314 
 393   0.0000       4.428929       120.5173 
 394   0.0000       4.436396       120.7205 
 395   0.0000       4.439632       120.8085 
 396   0.0000       4.451900       121.1424 
 397   0.0000       4.464307       121.4800 
 398   0.0000       4.486392       122.0809 
 399   0.0000       4.494112       122.2910 
 400   0.0000       4.502860       122.5291 
 401   0.0000       4.520017       122.9959 
 402   0.0000       4.528320       123.2219 
 403   0.0000       4.537826       123.4805 
 404   0.0000       4.558307       124.0378 
 405   0.0000       4.563580       124.1813 
 406   0.0000       4.570722       124.3757 
 407   0.0000       4.578851       124.5969 
 408   0.0000       4.597081       125.0929 
 409   0.0000       4.610745       125.4647 
 410   0.0000       4.623876       125.8221 
 411   0.0000       4.660234       126.8114 
 412   0.0000       4.666637       126.9856 
 413   0.0000       4.686802       127.5344 
 414   0.0000       4.714999       128.3016 
 415   0.0000       4.735841       128.8688 
 416   0.0000       4.752351       129.3180 
 417   0.0000       4.784946       130.2050 
 418   0.0000       4.812336       130.9503 
 419   0.0000       4.835369       131.5771 
 420   0.0000       4.859994       132.2472 
 421   0.0000       4.879997       132.7915 
 422   0.0000       4.893539       133.1600 
 423   0.0000       4.928941       134.1233 
 424   0.0000       4.932669       134.2248 
 425   0.0000       4.949781       134.6904 
 426   0.0000       4.980110       135.5157 
 427   0.0000       4.997521       135.9895 
 428   0.0000       5.016580       136.5081 
 429   0.0000       5.037565       137.0791 
 430   0.0000       5.067239       137.8866 
 431   0.0000       5.080921       138.2589 
 432   0.0000       5.088675       138.4699 
 433   0.0000       5.099130       138.7544 
 434   0.0000       5.122527       139.3911 
 435   0.0000       5.131592       139.6377 
 436   0.0000       5.146236       140.0362 
 437   0.0000       5.156286       140.3097 
 438   0.0000       5.166180       140.5789 
 439   0.0000       5.177421       140.8848 
 440   0.0000       5.181280       140.9898 
 441   0.0000       5.202198       141.5590 
 442   0.0000       5.207884       141.7137 
 443   0.0000       5.233478       142.4102 
 444   0.0000       5.263253       143.2204 
 445   0.0000       5.294705       144.0762 
 446   0.0000       5.304729       144.3490 
 447   0.0000       5.341821       145.3583 
 448   0.0000       5.358949       145.8244 
 449   0.0000       5.397874       146.8836 
 450   0.0000       5.425006       147.6219 
 451   0.0000       5.478776       149.0851 
 452   0.0000       5.513401       150.0273 
 453   0.0000       5.521583       150.2499 
 454   0.0000       5.561354       151.3321 
 455   0.0000       5.571857       151.6179 
 456   0.0000       5.630924       153.2252 
 457   0.0000       5.654319       153.8618 
 458   0.0000       5.689495       154.8190 
 459   0.0000       5.698401       155.0614 
 460   0.0000       5.763962       156.8454 
 461   0.0000       5.818413       158.3271 
 462   0.0000       6.135976       166.9684 
 463   0.0000       6.145025       167.2146 
 464   0.0000       6.191701       168.4847 
 465   0.0000       6.204907       168.8441 
 466   0.0000       6.224334       169.3727 
 467   0.0000       6.317195       171.8996 
 468   0.0000       6.317686       171.9130 
 469   0.0000       6.341527       172.5617 
 470   0.0000       6.350424       172.8038 
 471   0.0000       6.374373       173.4555 
 472   0.0000       6.405323       174.2977 
 473   0.0000       6.418399       174.6535 
 474   0.0000       6.611161       179.8988 
 475   0.0000       6.642481       180.7511 
 476   0.0000       6.652033       181.0110 
 477   0.0000       6.673319       181.5902 
 478   0.0000       6.679465       181.7575 
 479   0.0000       6.723250       182.9489 
 480   0.0000       6.741535       183.4465 
 481   0.0000       6.760740       183.9691 
 482   0.0000       6.776699       184.4033 
 483   0.0000       6.792451       184.8320 
 484   0.0000       6.827892       185.7964 
 485   0.0000       6.854156       186.5111 
 486   0.0000       6.924874       188.4354 
 487   0.0000       6.963279       189.4805 
 488   0.0000       6.968187       189.6140 
 489   0.0000       6.974627       189.7892 
 490   0.0000       6.980286       189.9432 
 491   0.0000       7.015390       190.8985 
 492   0.0000       7.017698       190.9613 
 493   0.0000       7.062029       192.1676 
 494   0.0000       7.088323       192.8831 
 495   0.0000       7.096488       193.1053 
 496   0.0000       7.099747       193.1939 
 497   0.0000       7.113300       193.5627 
 498   0.0000       7.128795       193.9844 
 499   0.0000       7.139935       194.2875 
 500   0.0000       7.151726       194.6084 
 501   0.0000       7.158165       194.7836 
 502   0.0000       7.166837       195.0196 
 503   0.0000       7.168538       195.0658 
 504   0.0000       7.178940       195.3489 
 505   0.0000       7.201300       195.9573 
 506   0.0000       7.204682       196.0494 
 507   0.0000       7.213181       196.2806 
 508   0.0000       7.222377       196.5309 
 509   0.0000       7.233625       196.8370 
 510   0.0000       7.248912       197.2529 
 511   0.0000       7.264455       197.6759 
 512   0.0000       7.277055       198.0187 
 513   0.0000       7.286838       198.2850 
 514   0.0000       7.293428       198.4643 
 515   0.0000       7.316896       199.1029 
 516   0.0000       7.328707       199.4243 
 517   0.0000       7.340001       199.7316 
 518   0.0000       7.352195       200.0634 
 519   0.0000       7.390990       201.1191 
 520   0.0000       7.424865       202.0408 
 521   0.0000       7.500673       204.1037 
 522   0.0000       7.538265       205.1266 
 523   0.0000       7.614244       207.1941 
 524   0.0000       7.617459       207.2816 
 525   0.0000       7.669296       208.6922 
 526   0.0000       7.708095       209.7479 
 527   0.0000       7.738030       210.5625 
 528   0.0000       7.746508       210.7932 
 529   0.0000       7.753701       210.9889 
 530   0.0000       7.757408       211.0898 
 531   0.0000       7.780227       211.7107 
 532   0.0000       7.788000       211.9222 
 533   0.0000       7.805297       212.3929 
 534   0.0000       7.836607       213.2449 
 535   0.0000       7.858887       213.8512 
 536   0.0000       7.881932       214.4783 
 537   0.0000       7.921392       215.5520 
 538   0.0000       7.943039       216.1411 
 539   0.0000       7.995691       217.5738 
 540   0.0000       8.675781       236.0800 
 541   0.0000       8.707985       236.9563 
 542   0.0000       8.710578       237.0269 
 543   0.0000       8.740428       237.8391 
 544   0.0000       8.776455       238.8195 
 545   0.0000       8.801460       239.4999 
 546   0.0000      15.930627       433.4944 
 547   0.0000      16.373611       445.5486 
 548   0.0000      16.654257       453.1854 
 549   0.0000      17.126491       466.0355 
 550   0.0000      17.337920       471.7888 
 551   0.0000      17.748665       482.9657 

                    ********************************
                    * MULLIKEN POPULATION ANALYSIS *
                    ********************************

-----------------------
MULLIKEN ATOMIC CHARGES
-----------------------
   0 O :   -0.545132
   1 H :    0.333066
   2 H :    0.152823
   3 O :   -0.566504
   4 H :    0.312633
   5 H :    0.282605
   6 O :   -0.466245
   7 H :    0.316888
   8 H :    0.159124
   9 O :   -0.452904
  10 H :    0.307263
  11 H :    0.151228
  12 O :   -0.426721
  13 H :    0.299675
  14 H :    0.138616
  15 O :   -0.440170
  16 H :    0.307095
  17 H :    0.136659
Sum of atomic charges:    0.0000000

--------------------------------
MULLIKEN REDUCED ORBITAL CHARGES
--------------------------------
  0 O s       :     3.991930  s :     3.991930
      pz      :     1.404607  p :     4.546327
      px      :     1.515002
      py      :     1.626718
      dz2     :     0.000308  d :     0.007001
      dxz     :     0.001884
      dyz     :    -0.000798
      dx2y2   :     0.004318
      dxy     :     0.001289
      f0      :    -0.000059  f :    -0.000126
      f+1     :    -0.000009
      f-1     :     0.000042
      f+2     :    -0.000198
      f-2     :     0.000098
      f+3     :    -0.000001
      f-3     :     0.000003
  1 H s       :     0.555537  s :     0.555537
      pz      :     0.026423  p :     0.064001
      px      :    -0.007169
      py      :     0.044746
      dz2     :     0.012509  d :     0.047396
      dxz     :     0.007298
      dyz     :     0.008046
      dx2y2   :     0.004750
      dxy     :     0.014792
  2 H s       :     0.720184  s :     0.720184
      pz      :     0.029001  p :     0.109786
      px      :     0.036689
      py      :     0.044095
      dz2     :     0.006402  d :     0.017207
      dxz     :     0.005379
      dyz     :     0.001687
      dx2y2   :     0.001979
      dxy     :     0.001760
  3 O s       :     3.987603  s :     3.987603
      pz      :     1.708110  p :     4.567036
      px      :     1.489429
      py      :     1.369498
      dz2     :     0.001382  d :     0.011869
      dxz     :    -0.000046
      dyz     :     0.000706
      dx2y2   :     0.008637
      dxy     :     0.001189
      f0      :     0.000146  f :    -0.000004
      f+1     :     0.000031
      f-1     :     0.000150
      f+2     :    -0.000101
      f-2     :     0.000012
      f+3     :    -0.000008
      f-3     :    -0.000234
  4 H s       :     0.564206  s :     0.564206
      pz      :     0.052693  p :     0.095354
      px      :     0.043706
      py      :    -0.001045
      dz2     :     0.001808  d :     0.027807
      dxz     :     0.001046
      dyz     :     0.012426
      dx2y2   :     0.000066
      dxy     :     0.012461
  5 H s       :     0.576129  s :     0.576129
      pz      :     0.038517  p :     0.102112
      px      :     0.032770
      py      :     0.030825
      dz2     :     0.012152  d :     0.039154
      dxz     :     0.006372
      dyz     :     0.002559
      dx2y2   :     0.010984
      dxy     :     0.007085
  6 O s       :     3.914123  s :     3.914123
      pz      :     1.380755  p :     4.541537
      px      :     1.492920
      py      :     1.667862
      dz2     :     0.000242  d :     0.010438
      dxz     :     0.002200
      dyz     :     0.002375
      dx2y2   :     0.003987
      dxy     :     0.001633
      f0      :    -0.000035  f :     0.000147
      f+1     :     0.000020
      f-1     :     0.000137
      f+2     :     0.000097
      f-2     :     0.000025
      f+3     :    -0.000067
      f-3     :    -0.000031
  7 H s       :     0.576438  s :     0.576438
      pz      :     0.030212  p :     0.070997
      px      :    -0.015490
      py      :     0.056275
      dz2     :     0.008421  d :     0.035677
      dxz     :     0.005865
      dyz     :     0.004268
      dx2y2   :     0.007066
      dxy     :     0.010057
  8 H s       :     0.718946  s :     0.718946
      pz      :     0.025241  p :     0.105747
      px      :     0.035213
      py      :     0.045293
      dz2     :     0.005304  d :     0.016183
      dxz     :     0.004510
      dyz     :     0.002785
      dx2y2   :     0.002261
      dxy     :     0.001324
  9 O s       :     3.900149  s :     3.900149
      pz      :     1.720491  p :     4.538486
      px      :     1.463545
      py      :     1.354450
      dz2     :     0.002894  d :     0.014085
      dxz     :     0.000544
      dyz     :     0.000578
      dx2y2   :     0.008869
      dxy     :     0.001200
      f0      :     0.000157  f :     0.000184
      f+1     :     0.000066
      f-1     :     0.000162
      f+2     :     0.000018
      f-2     :     0.000008
      f+3     :    -0.000002
      f-3     :    -0.000225
 10 H s       :     0.581288  s :     0.581288
      pz      :     0.049508  p :     0.072085
      px      :     0.035603
      py      :    -0.013026
      dz2     :     0.001191  d :     0.039364
      dxz     :     0.000323
      dyz     :     0.018179
      dx2y2   :     0.003185
      dxy     :     0.016486
 11 H s       :     0.720758  s :     0.720758
      pz      :     0.044451  p :     0.111241
      px      :     0.032741
      py      :     0.034049
      dz2     :     0.005365  d :     0.016773
      dxz     :     0.002783
      dyz     :     0.001272
      dx2y2   :     0.004658
      dxy     :     0.002695
 12 O s       :     3.888531  s :     3.888531
      pz      :     1.346448  p :     4.527185
      px      :     1.805406
      py      :     1.375331
      dz2     :     0.003841  d :     0.010998
      dxz     :     0.000325
      dyz     :     0.000968
      dx2y2   :     0.004971
      dxy     :     0.000893
      f0      :     0.000078  f :     0.000007
      f+1     :     0.000151
      f-1     :    -0.000290
      f+2     :    -0.000071
      f-2     :     0.000019
      f+3     :     0.000005
      f-3     :     0.000115
 13 H s       :     0.581022  s :     0.581022
      pz      :     0.027041  p :     0.075551
      px      :     0.052479
      py      :    -0.003969
      dz2     :     0.001248  d :     0.043752
      dxz     :     0.000300
      dyz     :     0.014753
      dx2y2   :     0.003650
      dxy     :     0.023801
 14 H s       :     0.729632  s :     0.729632
      pz      :     0.020536  p :     0.113615
      px      :     0.058085
      py      :     0.034995
      dz2     :     0.003600  d :     0.018136
      dxz     :     0.008883
      dyz     :     0.002856
      dx2y2   :     0.001550
      dxy     :     0.001247
 15 O s       :     3.890707  s :     3.890707
      pz      :     1.603966  p :     4.536770
      px      :     1.302387
      py      :     1.630417
      dz2     :     0.000403  d :     0.012661
      dxz     :     0.006649
      dyz     :     0.002345
      dx2y2   :     0.001711
      dxy     :     0.001552
      f0      :     0.000058  f :     0.000032
      f+1     :     0.000004
      f-1     :    -0.000021
      f+2     :    -0.000053
      f-2     :     0.000172
      f+3     :     0.000042
      f-3     :    -0.000169
 16 H s       :     0.583090  s :     0.583090
      pz      :     0.020569  p :     0.063275
      px      :     0.001268
      py      :     0.041437
      dz2     :     0.008786  d :     0.046540
      dxz     :     0.007011
      dyz     :     0.004564
      dx2y2   :     0.006982
      dxy     :     0.019197
 17 H s       :     0.733239  s :     0.733239
      pz      :     0.036372  p :     0.112812
      px      :     0.031996
      py      :     0.044444
      dz2     :     0.003908  d :     0.017290
      dxz     :     0.002754
      dyz     :     0.001647
      dx2y2   :     0.006556
      dxy     :     0.002425


                     *******************************
                     * LOEWDIN POPULATION ANALYSIS *
                     *******************************

----------------------
LOEWDIN ATOMIC CHARGES
----------------------
   0 O :    1.147599
   1 H :   -0.656317
   2 H :   -0.428486
   3 O :    1.139416
   4 H :   -0.580375
   5 H :   -0.625966
   6 O :    1.119155
   7 H :   -0.650030
   8 H :   -0.459492
   9 O :    1.108301
  10 H :   -0.658260
  11 H :   -0.465423
  12 O :    1.127414
  13 H :   -0.665695
  14 H :   -0.450005
  15 O :    1.120628
  16 H :   -0.667868
  17 H :   -0.454599

-------------------------------
LOEWDIN REDUCED ORBITAL CHARGES
-------------------------------
  0 O s       :     2.929756  s :     2.929756
      pz      :     1.217381  p :     3.789764
      px      :     1.271358
      py      :     1.301026
      dz2     :     0.012197  d :     0.113873
      dxz     :     0.034199
      dyz     :     0.025560
      dx2y2   :     0.036866
      dxy     :     0.005051
      f0      :     0.002027  f :     0.019008
      f+1     :     0.001113
      f-1     :     0.004331
      f+2     :     0.006245
      f-2     :     0.001234
      f+3     :     0.002912
      f-3     :     0.001145
  1 H s       :     0.528200  s :     0.528200
      pz      :     0.186031  p :     0.618273
      px      :     0.295381
      py      :     0.136861
      dz2     :     0.094897  d :     0.509843
      dxz     :     0.143305
      dyz     :     0.048330
      dx2y2   :     0.115828
      dxy     :     0.107483
  2 H s       :     0.575957  s :     0.575957
      pz      :     0.192578  p :     0.513185
      px      :     0.137865
      py      :     0.182742
      dz2     :     0.096322  d :     0.339344
      dxz     :     0.074653
      dyz     :     0.085200
      dx2y2   :     0.039894
      dxy     :     0.043275
  3 O s       :     2.939710  s :     2.939710
      pz      :     1.337232  p :     3.802303
      px      :     1.248085
      py      :     1.216985
      dz2     :     0.008151  d :     0.100139
      dxz     :     0.028819
      dyz     :     0.007392
      dx2y2   :     0.048863
      dxy     :     0.006915
      f0      :     0.002650  f :     0.018432
      f+1     :     0.000656
      f-1     :     0.001662
      f+2     :     0.005081
      f-2     :     0.000669
      f+3     :     0.002660
      f-3     :     0.005054
  4 H s       :     0.553963  s :     0.553963
      pz      :     0.154420  p :     0.578533
      px      :     0.132151
      py      :     0.291962
      dz2     :     0.052193  d :     0.447878
      dxz     :     0.008888
      dyz     :     0.128091
      dx2y2   :     0.129784
      dxy     :     0.128922
  5 H s       :     0.546328  s :     0.546328
      pz      :     0.195200  p :     0.600569
      px      :     0.276143
      py      :     0.129227
      dz2     :     0.076232  d :     0.479069
      dxz     :     0.146573
      dyz     :     0.037852
      dx2y2   :     0.114843
      dxy     :     0.103568
  6 O s       :     2.953170  s :     2.953170
      pz      :     1.220293  p :     3.814505
      px      :     1.283855
      py      :     1.310357
      dz2     :     0.017749  d :     0.095512
      dxz     :     0.016419
      dyz     :     0.024763
      dx2y2   :     0.031005
      dxy     :     0.005576
      f0      :     0.001753  f :     0.017658
      f+1     :     0.000198
      f-1     :     0.006371
      f+2     :     0.003601
      f-2     :     0.000890
      f+3     :     0.002340
      f-3     :     0.002506
  7 H s       :     0.547917  s :     0.547917
      pz      :     0.169871  p :     0.609749
      px      :     0.293995
      py      :     0.145882
      dz2     :     0.081368  d :     0.492364
      dxz     :     0.143293
      dyz     :     0.034084
      dx2y2   :     0.122214
      dxy     :     0.111405
  8 H s       :     0.581585  s :     0.581585
      pz      :     0.213216  p :     0.531703
      px      :     0.141486
      py      :     0.177002
      dz2     :     0.104006  d :     0.346203
      dxz     :     0.089694
      dyz     :     0.089515
      dx2y2   :     0.032308
      dxy     :     0.030680
  9 O s       :     2.959104  s :     2.959104
      pz      :     1.353864  p :     3.821939
      px      :     1.248211
      py      :     1.219863
      dz2     :     0.009679  d :     0.093391
      dxz     :     0.023536
      dyz     :     0.004417
      dx2y2   :     0.044318
      dxy     :     0.011441
      f0      :     0.001928  f :     0.017265
[...]
      1      -0.000338  -0.000593  -0.000358  -0.000723  -0.000246  -0.000555
      2      -0.018641   0.020649   0.010327  -0.002461  -0.002792  -0.001568
      3      -0.510968   0.581786   0.299697  -0.068436  -0.065316  -0.030769
      4       0.018458  -0.023829  -0.013373   0.006373   0.004197   0.003470
      5       0.321153  -0.369765  -0.193665   0.048162   0.049297   0.023456
      6       0.001193  -0.000595  -0.000146   0.004892   0.007521   0.004346
      7      -0.029525   0.036596   0.022206  -0.001239  -0.000329   0.001994
      8      -0.044379   0.054437   0.031427  -0.002081   0.000480   0.003048
      9      -0.003379  -0.005235   0.003714   0.020882  -0.030028   0.035909
     10       0.003792  -0.000671  -0.001537   0.007533   0.002812   0.003249
     11      -0.001875  -0.003173   0.001505   0.012090  -0.014025   0.018226
     12       0.004619   0.003603  -0.002011   0.012840  -0.012000   0.017124
     13      -0.074553  -0.014514   0.036994  -0.026859  -0.170827   0.102137
     14      -0.021761  -0.004866   0.009808  -0.003256  -0.048493   0.032079
     15       0.068085   0.087711  -0.057495  -0.333128   0.486128  -0.583768
     16       0.017935   0.018440  -0.013753  -0.089202   0.129851  -0.151833
     17       0.033269   0.042061  -0.028979  -0.185526   0.268584  -0.319299
     18       0.004359  -0.005145  -0.002494  -0.025078  -0.040926  -0.021262
     19       0.000774  -0.001292  -0.000618  -0.007127  -0.011861  -0.005650
     20       0.001877  -0.002164  -0.000947  -0.009009  -0.015579  -0.008617
     21      -0.066254   0.079374   0.038976   0.401368   0.662750   0.346568
     22      -0.011917   0.017232   0.007547   0.085949   0.128518   0.065771
     23      -0.032677   0.037824   0.018602   0.206056   0.347246   0.182969
     24       0.002062  -0.001661  -0.000366  -0.009086  -0.020505  -0.012237
     25      -0.003207   0.002913   0.002949   0.043614   0.057332   0.022591
     26       0.006274  -0.006551  -0.004938  -0.067066  -0.103541  -0.047714
     27      -0.000085   0.000147   0.000158   0.007710  -0.002601  -0.005874
     28       0.002765   0.000274  -0.001498  -0.046010   0.009674   0.034394
     29       0.000172   0.000468  -0.000088   0.000696   0.000232  -0.000862
     30       0.003722  -0.000922  -0.001604  -0.048181   0.010620   0.027435
     31      -0.042894  -0.004490   0.024012   0.768557  -0.170962  -0.582801
     32       0.003160  -0.001485  -0.001776  -0.066145   0.016176   0.051139
     33       0.004589   0.004109  -0.003594  -0.090521   0.035989   0.061669
     34       0.002300   0.000485  -0.001365  -0.051332   0.015037   0.041218
     35      -0.002375  -0.002363   0.001761   0.049870  -0.017427  -0.038437
     36       0.002621   0.000506   0.005182   0.000143   0.000199   0.000000
     37      -0.034683  -0.003626  -0.049815  -0.000059  -0.000090   0.000304
     38      -0.002522   0.000296  -0.003909  -0.000168  -0.000124  -0.000089
     39      -0.055776  -0.002474  -0.074338   0.000244  -0.001475   0.001184
     40       0.547867   0.057585   0.821039   0.000141   0.000730  -0.005603
     41       0.010678  -0.002680  -0.003153   0.000382   0.001149   0.000024
     42      -0.012736   0.007996  -0.006174  -0.000845   0.000142   0.000139
     43      -0.022134  -0.004151  -0.041513   0.000213   0.000499   0.000095
     44       0.050565  -0.010000   0.065035   0.001150  -0.001109   0.000154
     45      -0.029281  -0.036822   0.021798  -0.004084   0.004840  -0.003850
     46      -0.003793  -0.006178   0.003269  -0.000820   0.001008  -0.000759
     47       0.017597   0.021814  -0.012187   0.002602  -0.003330   0.002558
     48       0.483250   0.621339  -0.370997   0.073548  -0.091063   0.071782
     49       0.060951   0.069122  -0.034806   0.006724  -0.005312   0.004248
     50      -0.248774  -0.314840   0.183340  -0.036754   0.045856  -0.035500
     51      -0.038907  -0.051484   0.028448  -0.008157   0.012335  -0.009315
     52       0.036425   0.036436  -0.007486   0.006322  -0.009315   0.006937
     53      -0.021284  -0.023149   0.006652  -0.004304   0.007116  -0.005053
                 48         49         50         51         52         53    
      0      -0.002724   0.004111   0.000802  -0.000185   0.000592   0.000140
      1       0.000934   0.037020   0.000959  -0.000019   0.001032   0.000083
      2       0.003826   0.050237   0.000967  -0.000049   0.001343   0.000003
      3       0.055709   0.069986  -0.007780   0.002038  -0.004661  -0.001977
      4      -0.003015   0.016291   0.001387  -0.000257   0.001207  -0.000107
      5      -0.038105  -0.019018   0.008615  -0.001332   0.004612   0.001481
      6      -0.006871  -0.138712  -0.003333   0.000095  -0.003082   0.000000
      7      -0.018191  -0.603523  -0.017357   0.000793  -0.018113  -0.000855
      8      -0.020307  -0.777235  -0.022695   0.001140  -0.023208  -0.001058
      9       0.009141  -0.000202   0.000109  -0.000731  -0.000332  -0.000578
     10       0.060561  -0.001887  -0.000323   0.000115  -0.001125   0.000428
     11       0.018484  -0.000515  -0.000070  -0.000290  -0.000408  -0.000070
     12       0.009225   0.000638   0.000028   0.000136   0.000221  -0.000583
     13      -0.948398   0.030453   0.005668  -0.004196   0.017443  -0.008461
     14      -0.220190   0.007699   0.001496  -0.000823   0.003518  -0.002082
     15      -0.144439   0.002468  -0.001295   0.011650   0.005843   0.007103
     16      -0.009933  -0.000391  -0.000471   0.002343   0.000818   0.002631
     17      -0.073186   0.001099  -0.000629   0.004268   0.002623   0.004564
     18       0.005078  -0.000538  -0.000586   0.000379  -0.010622  -0.001314
     19       0.002276  -0.001233   0.001828  -0.003166   0.030244   0.003642
     20       0.001020   0.001433  -0.003265   0.004967  -0.054257  -0.006567
     21      -0.086813   0.009724   0.006798  -0.001633   0.126734   0.016036
     22      -0.015804   0.002640   0.002595  -0.002901   0.042144   0.004954
     23      -0.047503   0.006024   0.001967   0.002216   0.039219   0.005171
     24       0.003194  -0.001194   0.002383  -0.004648   0.038556   0.004667
     25      -0.017820   0.017794  -0.031534   0.050096  -0.521856  -0.063021
     26       0.028733  -0.028007   0.049696  -0.080462   0.821303   0.099141
     27      -0.000821  -0.000085  -0.000031   0.049060   0.004731   0.000115
     28       0.002800  -0.000032  -0.000112   0.028528   0.001990   0.000047
     29      -0.000289   0.000042   0.000039  -0.028207  -0.002647  -0.000118
     30       0.002484  -0.000022  -0.000136   0.034962   0.003785   0.000443
     31      -0.049664  -0.000085   0.001632  -0.126944   0.000135  -0.000405
     32       0.004795   0.000071  -0.000279  -0.003614  -0.003185  -0.000056
     33       0.004215   0.001403   0.000645  -0.812375  -0.078726  -0.002265
     34       0.003777   0.000566   0.000228  -0.322896  -0.031813  -0.000943
     35      -0.003287  -0.000782  -0.000395   0.452833   0.044001   0.001374
     36      -0.000317   0.000371  -0.007639  -0.000081   0.000541   0.000035
     37       0.000687   0.000264  -0.025615  -0.000117   0.001332   0.001032
     38       0.000461  -0.001609   0.056477   0.000393  -0.003424  -0.000550
     39       0.000744   0.000232  -0.010931   0.000085   0.000103   0.002139
     40      -0.012458   0.004982   0.072726  -0.000514  -0.001123  -0.012872
     41      -0.000189  -0.001350   0.029768   0.000220  -0.002001   0.002006
     42       0.000845  -0.002819   0.130488   0.000990  -0.007797  -0.001143
     43       0.001526  -0.009682   0.330961   0.002266  -0.020027  -0.002377
     44      -0.004723   0.024426  -0.926627  -0.006343   0.055506   0.007795
     45       0.001841  -0.000011   0.000400   0.000351  -0.005330   0.044533
     46       0.000747  -0.000176   0.000108  -0.000287   0.004148  -0.034747
     47      -0.001463   0.000140  -0.000153   0.000232  -0.003129   0.025861
     48      -0.041127   0.002381  -0.006249  -0.000197   0.005868  -0.052299
     49      -0.001597   0.000338  -0.000109  -0.000308   0.003268  -0.025506
     50       0.018714  -0.000960   0.003204   0.000197  -0.006148   0.053098
     51       0.009234  -0.001962  -0.000380  -0.005551   0.078545  -0.653517
     52      -0.007803   0.001662   0.001783   0.004850  -0.069204   0.575423
     53       0.005440  -0.001245  -0.001130  -0.003984   0.056109  -0.465979


-----------
IR SPECTRUM  
-----------

 Mode    freq (cm**-1)   T**2         TX         TY         TZ
-------------------------------------------------------------------
   6:        31.92    0.967698  (  0.671676   0.040282  -0.717584)
   7:        36.46    0.794140  ( -0.258506   0.179412  -0.833742)
   8:        56.51    1.483051  ( -0.582551  -0.066977  -1.067333)
   9:        73.01    0.758256  ( -0.730404   0.268144   0.390980)
  10:        91.45    5.789654  (  0.172933  -1.036077  -2.164784)
  11:       157.38    0.579432  ( -0.732709   0.203592  -0.033462)
  12:       185.23    5.618489  ( -1.325242   1.566974   1.186092)
  13:       197.97   45.964507  (  1.221565   6.021658   2.865646)
  14:       202.86   50.868282  ( -6.004817   2.204160   3.154700)
  15:       232.92   15.527522  (  3.135648  -2.287924   0.678703)
  16:       242.57  142.162142  (  1.215045  11.035565   4.347657)
  17:       252.93  143.820480  (-10.706285  -1.827603  -5.084861)
  18:       259.15   16.306219  (  1.551335   3.625264   0.870079)
  19:       282.14   75.502195  ( -7.301064   4.619058   0.927885)
  20:       291.35    3.232886  (  1.275396  -0.558394   1.137739)
  21:       302.93   48.613625  (  4.203193  -4.532358  -3.225605)
  22:       316.07   60.014833  (  2.316760   3.935894  -6.257491)
  23:       400.45   25.268753  ( -4.120379  -2.635358  -1.160223)
  24:       416.00   57.328821  ( -2.114935   5.319115  -4.956096)
  25:       456.36   37.222182  (  4.527415   2.904583  -2.878905)
  26:       467.61   10.425105  ( -0.895753  -2.220921   2.165696)
  27:       495.23   31.244241  ( -4.556365   2.649201   1.861587)
  28:       552.31   10.864894  ( -1.649917  -2.305934   1.680873)
  29:       617.90   61.269388  ( -0.491416  -4.706325   6.235255)
  30:       738.19  168.208685  (  2.619668 -11.962632  -4.271003)
  31:       761.00  196.294452  (  2.712700   4.310787 -13.051928)
  32:       839.14  212.733392  (-13.560514  -2.197732  -4.900595)
  33:       860.59   61.728438  ( -4.091281  -2.803562  -6.093431)
  34:       911.83  111.042964  (  3.547618  -9.452814  -3.016898)
  35:      1027.55   21.103847  ( -2.432266  -1.544332   3.578124)
  36:      1644.68   77.147644  ( -7.664606  -3.871215  -1.848014)
  37:      1655.42   86.734193  ( -3.489740  -1.431388   8.515107)
  38:      1658.57   84.756770  (  3.680091  -8.369341   1.080663)
  39:      1676.27    4.090583  (  1.942849   0.218077   0.518038)
  40:      1688.80   42.744366  (  5.647539  -3.287920   0.198117)
  41:      1717.89   18.266626  (  3.515359  -1.879837   1.541134)
  42:      3253.30  262.375938  ( -0.733433  16.103373   1.587257)
  43:      3335.62  2196.032497  ( 43.316901  -2.283247 -17.733173)
  44:      3392.33  650.662898  ( -3.203961  25.101911  -3.208056)
  45:      3500.46  335.822586  (  2.986506  18.080417   0.043555)
  46:      3561.84  877.347333  ( 24.276364  -3.013424  16.701041)
  47:      3577.23  244.319063  ( -6.702731 -14.065014  -1.252136)
  48:      3716.47  441.737000  ( -7.276692 -18.996494  -5.283936)
  49:      3873.92   80.539872  (  2.207325  -4.208897  -7.612672)
  50:      3880.56   68.086533  (  1.202549   5.654941  -5.887448)
  51:      3881.74   78.074160  ( -5.492616  -6.509491   2.351992)
  52:      3884.05  111.992074  (  5.365464  -3.934527   8.229421)
  53:      3885.10   55.372311  ( -6.707100   3.221764  -0.085755)

The first frequency considered to be a vibration is 6
The total number of vibrations considered is 48


--------------------------
THERMOCHEMISTRY AT 298.15K
--------------------------

Temperature         ... 298.15 K
Pressure            ... 1.00 atm
Total Mass          ... 108.09 AMU

Throughout the following assumptions are being made:
  (1) The electronic state is orbitally nondegenerate
  (2) There are no thermally accessible electronically excited states
  (3) Hindered rotations indicated by low frequency modes are not
      treated as such but are treated as vibrations and this may
      cause some error
  (4) All equations used are the standard statistical mechanics
      equations for an ideal gas
  (5) All vibrations are strictly harmonic

freq.      31.92  E(vib)   ...       0.55 
freq.      36.46  E(vib)   ...       0.54 
freq.      56.51  E(vib)   ...       0.52 
freq.      73.01  E(vib)   ...       0.49 
freq.      91.45  E(vib)   ...       0.47 
freq.     157.38  E(vib)   ...       0.40 
freq.     185.23  E(vib)   ...       0.37 
freq.     197.97  E(vib)   ...       0.35 
freq.     202.86  E(vib)   ...       0.35 
freq.     232.92  E(vib)   ...       0.32 
freq.     242.57  E(vib)   ...       0.31 
freq.     252.93  E(vib)   ...       0.30 
freq.     259.15  E(vib)   ...       0.30 
freq.     282.14  E(vib)   ...       0.28 
freq.     291.35  E(vib)   ...       0.27 
freq.     302.93  E(vib)   ...       0.26 
freq.     316.07  E(vib)   ...       0.25 
freq.     400.45  E(vib)   ...       0.19 
freq.     416.00  E(vib)   ...       0.18 
freq.     456.36  E(vib)   ...       0.16 
freq.     467.61  E(vib)   ...       0.16 
freq.     495.23  E(vib)   ...       0.14 
freq.     552.31  E(vib)   ...       0.12 
freq.     617.90  E(vib)   ...       0.09 
freq.     738.19  E(vib)   ...       0.06 
freq.     761.00  E(vib)   ...       0.06 
freq.     839.14  E(vib)   ...       0.04 
freq.     860.59  E(vib)   ...       0.04 
freq.     911.83  E(vib)   ...       0.03 
freq.    1027.55  E(vib)   ...       0.02 
freq.    1644.68  E(vib)   ...       0.00 
freq.    1655.42  E(vib)   ...       0.00 
freq.    1658.57  E(vib)   ...       0.00 
freq.    1676.27  E(vib)   ...       0.00 
freq.    1688.80  E(vib)   ...       0.00 
freq.    1717.89  E(vib)   ...       0.00 
freq.    3253.30  E(vib)   ...       0.00 
freq.    3335.62  E(vib)   ...       0.00 
freq.    3392.33  E(vib)   ...       0.00 
freq.    3500.46  E(vib)   ...       0.00 
freq.    3561.84  E(vib)   ...       0.00 
freq.    3577.23  E(vib)   ...       0.00 
freq.    3716.47  E(vib)   ...       0.00 
freq.    3873.92  E(vib)   ...       0.00 
freq.    3880.56  E(vib)   ...       0.00 
freq.    3881.74  E(vib)   ...       0.00 
freq.    3884.05  E(vib)   ...       0.00 
freq.    3885.10  E(vib)   ...       0.00 

------------
INNER ENERGY
------------

The inner energy is: U= E(el) + E(ZPE) + E(vib) + E(rot) + E(trans)
    E(el)   - is the total energy from the electronic structure calculation
              = E(kin-el) + E(nuc-el) + E(el-el) + E(nuc-nuc)
    E(ZPE)  - the the zero temperature vibrational energy from the frequency calculation
    E(vib)  - the the finite temperature correction to E(ZPE) due to population
              of excited vibrational states
    E(rot)  - is the rotational thermal energy
    E(trans)- is the translational thermal energy

Summary of contributions to the inner energy U:
Electronic energy                ...   -458.56482825 Eh
Zero point energy                ...      0.14931395 Eh      93.70 kcal/mol
Thermal vibrational correction   ...      0.01218255 Eh       7.64 kcal/mol
Thermal rotational correction    ...      0.00141627 Eh       0.89 kcal/mol
Thermal translational correction ...      0.00141627 Eh       0.89 kcal/mol
-----------------------------------------------------------------------
Total thermal energy                   -458.40049921 Eh


Summary of corrections to the electronic energy:
(perhaps to be used in another calculation)
Total thermal correction                  0.01501509 Eh       9.42 kcal/mol
Non-thermal (ZPE) correction              0.14931395 Eh      93.70 kcal/mol
-----------------------------------------------------------------------
Total correction                          0.16432904 Eh     103.12 kcal/mol


--------
ENTHALPY
--------

The enthalpy is H = U + kB*T
                kB is Boltzmann's constant
Total free energy                 ...   -458.40049921 Eh 
Thermal Enthalpy correction       ...      0.00094421 Eh       0.59 kcal/mol
-----------------------------------------------------------------------
Total Enthalpy                    ...   -458.39955500 Eh


Note: Only C1 symmetry has been detected, increase convergence thresholds 
      if your molecule has a higher symmetry. Symmetry factor of 1.0 is   
      used for the rotational entropy correction. 
 

Note: Rotational entropy computed according to Herzberg 
Infrared and Raman Spectra, Chapter V,1, Van Nostrand Reinhold, 1945 
Point Group:  C1, Symmetry Number:   1  
Rotational constants in cm-1:     0.064616     0.036825     0.026908 

Vibrational entropy computed according to the QRRHO of S. Grimme
Chem.Eur.J. 2012 18 9955


-------
ENTROPY
-------

The entropy contributions are T*S = T*(S(el)+S(vib)+S(rot)+S(trans))
     S(el)   - electronic entropy
     S(vib)  - vibrational entropy
     S(rot)  - rotational entropy
     S(trans)- translational entropy
The entropies will be listed as mutliplied by the temperature to get
units of energy

Electronic entropy                ...      0.00000000 Eh      0.00 kcal/mol
Vibrational entropy               ...      0.02185832 Eh     13.72 kcal/mol
Rotational entropy                ...      0.01406942 Eh      8.83 kcal/mol
Translational entropy             ...      0.01898142 Eh     11.91 kcal/mol
-----------------------------------------------------------------------
Final entropy term                ...      0.05490916 Eh     34.46 kcal/mol

In case the symmetry of your molecule has not been determined correctly
or in case you have a reason to use a different symmetry number we print 
out the resulting rotational entropy values for sn=1,12 :
 --------------------------------------------------------
|  sn= 1 | S(rot)=       0.01406942 Eh      8.83 kcal/mol|
|  sn= 2 | S(rot)=       0.01341496 Eh      8.42 kcal/mol|
|  sn= 3 | S(rot)=       0.01303213 Eh      8.18 kcal/mol|
|  sn= 4 | S(rot)=       0.01276051 Eh      8.01 kcal/mol|
|  sn= 5 | S(rot)=       0.01254982 Eh      7.88 kcal/mol|
|  sn= 6 | S(rot)=       0.01237767 Eh      7.77 kcal/mol|
|  sn= 7 | S(rot)=       0.01223213 Eh      7.68 kcal/mol|
|  sn= 8 | S(rot)=       0.01210605 Eh      7.60 kcal/mol|
|  sn= 9 | S(rot)=       0.01199484 Eh      7.53 kcal/mol|
|  sn=10 | S(rot)=       0.01189536 Eh      7.46 kcal/mol|
|  sn=11 | S(rot)=       0.01180537 Eh      7.41 kcal/mol|
|  sn=12 | S(rot)=       0.01172322 Eh      7.36 kcal/mol|
 --------------------------------------------------------


-------------------
GIBBS FREE ENERGY
-------------------

The Gibbs free energy is G = H - T*S

Total enthalpy                    ...   -458.39955500 Eh 
Total entropy correction          ...     -0.05490916 Eh    -34.46 kcal/mol
-----------------------------------------------------------------------
Final Gibbs free energy         ...   -458.45446416 Eh

For completeness - the Gibbs free energy minus the electronic energy
G-E(el)                           ...      0.11036409 Eh     69.25 kcal/mol


Total Time for Numerical Frequencies  :     11655.230 sec

Timings for individual modules:

Sum of individual times         ...      708.657 sec (=  11.811 min)
GTO integral calculation        ...        5.134 sec (=   0.086 min)   0.7 %
SCF iterations                  ...       43.163 sec (=   0.719 min)   6.1 %
MP2 module                      ...      659.775 sec (=  10.996 min)  93.1 %
Geometry relaxation             ...        0.585 sec (=   0.010 min)   0.1 %
                             ****ORCA TERMINATED NORMALLY****
TOTAL RUN TIME: 0 days 3 hours 24 minutes 11 seconds 931 msec
