
                                 *****************
                                 * O   R   C   A *
                                 *****************

           --- An Ab Initio, DFT and Semiempirical electronic structure package ---

                  #######################################################
                  #                        -***-                        #
                  #          Department of theory and spectroscopy      #
                  #               Directorship: Frank Neese             #
                  #        Max Planck Institute fuer Kohlenforschung    #
                  #                Kaiser Wilhelm Platz 1               #
                  #                 D-45470 Muelheim/Ruhr               #
                  #                      Germany                        #
                  #                                                     #
                  #                  All rights reserved                #
                  #                        -***-                        #
                  #######################################################


                         Program Version 4.2.0 -  RELEASE  -


 With contributions from (in alphabetic order):
   Daniel Aravena         : Magnetic Suceptibility
   Michael Atanasov       : Ab Initio Ligand Field Theory (pilot matlab implementation)
   Alexander A. Auer      : GIAO ZORA, VPT2
   Ute Becker             : Parallelization
   Giovanni Bistoni       : ED, misc. LED, open-shell LED, HFLED
   Martin Brehm           : Molecular dynamics
   Dmytro Bykov           : SCF Hessian
   Vijay G. Chilkuri      : MRCI spin determinant printing, contributions to CSF-ICE
   Dipayan Datta          : RHF DLPNO-CCSD density
   Achintya Kumar Dutta   : EOM-CC, STEOM-CC
   Dmitry Ganyushin       : Spin-Orbit,Spin-Spin,Magnetic field MRCI
   Miquel Garcia          : C-PCM Hessian, Gaussian charge scheme
   Yang Guo               : DLPNO-NEVPT2, CIM, IAO-localization
   Andreas Hansen         : Spin unrestricted coupled pair/coupled cluster methods
   Benjamin Helmich-Paris : CASSCF linear response (MC-RPA)
   Lee Huntington         : MR-EOM, pCC
   Robert Izsak           : Overlap fitted RIJCOSX, COSX-SCS-MP3, EOM
   Christian Kollmar      : KDIIS, OOCD, Brueckner-CCSD(T), CCSD density
   Simone Kossmann        : Meta GGA functionals, TD-DFT gradient, OOMP2, MP2 Hessian
   Martin Krupicka        : AUTO-CI
   Lucas Lang             : DCDCAS
   Dagmar Lenk            : GEPOL surface, SMD
   Dimitrios Liakos       : Extrapolation schemes; Compound Job, initial MDCI parallelization
   Dimitrios Manganas     : Further ROCIS development; embedding schemes
   Dimitrios Pantazis     : SARC Basis sets
   Taras Petrenko         : DFT Hessian,TD-DFT gradient, ASA, ECA, R-Raman, ABS, FL, XAS/XES, NRVS
   Peter Pinski           : DLPNO-MP2, DLPNO-MP2 Gradient
   Christoph Reimann      : Effective Core Potentials
   Marius Retegan         : Local ZFS, SOC
   Christoph Riplinger    : Optimizer, TS searches, QM/MM, DLPNO-CCSD(T), (RO)-DLPNO pert. Triples
   Tobias Risthaus        : Range-separated hybrids, TD-DFT gradient, RPA, STAB
   Michael Roemelt        : Original ROCIS implementation
   Masaaki Saitow         : Open-shell DLPNO-CCSD energy and density
   Barbara Sandhoefer     : DKH picture change effects
   Avijit Sen             : IP-ROCIS
   Kantharuban Sivalingam : CASSCF convergence, NEVPT2, FIC-MRCI
   Bernardo de Souza      : ESD, SOC TD-DFT
   Georgi Stoychev        : AutoAux, RI-MP2 NMR
   Willem Van den Heuvel  : Paramagnetic NMR
   Boris Wezisla          : Elementary symmetry handling
   Frank Wennmohs         : Technical directorship


 We gratefully acknowledge several colleagues who have allowed us to
 interface, adapt or use parts of their codes:
   Stefan Grimme, W. Hujo, H. Kruse,             : VdW corrections, initial TS optimization,
                  C. Bannwarth                     DFT functionals, gCP, sTDA/sTD-DF
   Ed Valeev, F. Pavosevic, A. Kumar             : LibInt (2-el integral package), F12 methods
   Garnet Chan, S. Sharma, J. Yang, R. Olivares  : DMRG
   Ulf Ekstrom                                   : XCFun DFT Library
   Mihaly Kallay                                 : mrcc  (arbitrary order and MRCC methods)
   Andreas Klamt, Michael Diedenhofen            : otool_cosmo (COSMO solvation model)
   Jiri Pittner, Ondrej Demel                    : Mk-CCSD
   Frank Weinhold                                : gennbo (NPA and NBO analysis)
   Christopher J. Cramer and Donald G. Truhlar   : smd solvation model
   Lars Goerigk                                  : TD-DFT with DH, B97 family of functionals
   V. Asgeirsson, H. Jonsson                     : NEB implementation
   FAccTs GmbH                                   : IRC, NEB, NEB-TS, Multilevel, MM, QM/MM, CI optimization
   S Lehtola, MJT Oliveira, MAL Marques          : LibXC Library


 Your calculation uses the libint2 library for the computation of 2-el integrals
 For citations please refer to: http://libint.valeyev.net

 Your ORCA version has been built with support for libXC version: 4.2.3
 For citations please refer to: https://tddft.org/programs/libxc/

 This ORCA versions uses:
   CBLAS   interface :  Fast vector & matrix operations
   LAPACKE interface :  Fast linear algebra routines
   SCALAPACK package :  Parallel linear algebra routines


Your calculation utilizes the atom-pairwise dispersion correction
with the Becke-Johnson damping scheme (D3BJ)
Cite in your paper:
S.Grimme, S.Ehrlich, L.Goerigk, J Comput Chem, (2011), 32, 1456–1465 
S.Grimme, J.Antony, S.Ehrlich and H.Krieg, J.Chem.Phys., 132, (2010), 154104 
   

----- Orbital basis set information -----
Your calculation utilizes the basis: aug-cc-pV(T+d)Z 
             Al - Ar: T.H. Dunning, Jr., K. A. Peterson and A. K. Wilson, J. Chem. Phys.
                      114, 9244 (2001)

----- AuxC basis set information -----
Your calculation utilizes the auxiliary basis: def2-TZVP/C
  H-La, Hf-Rn : A. Hellweg, C. Hattig, S. Hofener and W. Klopper, Theor. Chem. Acc. 117, 587 (2007).
        Ce-Lu : J. Chmela and M. E. Harding, Mol. Phys. (2018).

----- AuxJK basis set information -----
Your calculation utilizes the auxiliary basis: def2/JK
   H-Ba, Hf-Rn: F. Weigend, J. Comput. Chem. 29, 167 (2008).

================================================================================
                                        WARNINGS
                       Please study these warnings very carefully!
================================================================================


WARNING: The frozen-core approximation for MP2-gradient calculations is turned on by default.

WARNING: Geometry Optimization
  ===> : Switching off AutoStart
         For restart on a previous wavefunction, please use MOREAD

WARNING: The frozen-core approximation is turned on by default for 
         the MP2 part of double-hybrid DFT.

INFO   : the flag for use of LIBINT has been found!

================================================================================
                                       INPUT FILE
================================================================================
NAME = 08_H2O_6_cage.in
|  1> #
|  2> # 08_H2O_6_cage b2-plyp/aug-cc-pvt(+d)z
|  3> #
|  4> ! rijk ri-b2plyp d3bj aug-cc-pvt(+d)z def2/jk def2-tzvp/c grid4 nofinalgrid opt xyzfile numfreq
|  5> 
|  6> *xyz 0 1
|  7> O	0.862065	-1.728538	-0.448765
|  8> H	1.679686	-1.216793	-0.290371
|  9> H	1.141594	-2.607406	-0.70991
| 10> O	-0.751083	0.359939	-1.648316
| 11> H	-0.283702	-0.473988	-1.502279
| 12> H	-1.624922	0.21572	-1.247934
| 13> O	0.590537	1.75631	0.198185
| 14> H	0.069166	1.374794	-0.548651
| 15> H	0.493944	2.707937	0.134574
| 16> O	-0.675492	-0.446436	1.665684
| 17> H	-0.188802	-1.063799	1.102054
| 18> H	-0.260662	0.405216	1.474464
| 19> O	2.803582	0.112403	0.084677
| 20> H	2.165098	0.844551	0.158067
| 21> H	3.282044	0.106258	0.915526
| 22> O	-2.901034	0.010949	0.089937
| 23> H	-2.258917	-0.224605	0.785219
| 24> H	-3.643112	-0.584893	0.198028
| 25> *
| 26> 
| 27> %maxcore 5000
| 28> 
| 29> %pal
| 30> nprocs 24
| 31> end
| 32> 
| 33> 
| 34>                          ****END OF INPUT****
================================================================================

                       *****************************
                       * Geometry Optimization Run *
                       *****************************

Geometry optimization settings:
Update method            Update   .... BFGS
Choice of coordinates    CoordSys .... Z-matrix Internals
Initial Hessian          InHess   .... Almoef's Model

Convergence Tolerances:
Energy Change            TolE     ....  5.0000e-06 Eh
Max. Gradient            TolMAXG  ....  3.0000e-04 Eh/bohr
RMS Gradient             TolRMSG  ....  1.0000e-04 Eh/bohr
Max. Displacement        TolMAXD  ....  4.0000e-03 bohr
RMS Displacement         TolRMSD  ....  2.0000e-03 bohr
Strict Convergence                ....  False
------------------------------------------------------------------------------
                        ORCA OPTIMIZATION COORDINATE SETUP
------------------------------------------------------------------------------

The optimization will be done in new redundant internal coordinates
Making redundant internal coordinates   ...  (new redundants) done
Evaluating the initial hessian          ...  (Almloef) done
Evaluating the coordinates              ...  done
Calculating the B-matrix                .... done
Calculating the G-matrix                .... done
Diagonalizing the G-matrix              .... done
The first mode is                       ....  268
The number of degrees of freedom        ....   48

    -----------------------------------------------------------------
                    Redundant Internal Coordinates


    -----------------------------------------------------------------
         Definition                    Initial Value    Approx d2E/dq
    -----------------------------------------------------------------
      1. B(H   1,O   0)                  0.9775         0.487609   
      2. B(H   2,O   0)                  0.9585         0.522809   
      3. B(H   4,O   3)                  0.9671         0.506643   
      4. B(H   4,O   0)                  1.9991         0.011431   
      5. B(H   5,O   3)                  0.9720         0.497612   
      6. B(H   7,H   4)                  2.1100         0.001626   
      7. B(H   7,O   3)                  1.7065         0.033500   
      8. B(H   7,O   6)                  0.9875         0.470003   
      9. B(H   7,H   5)                  2.1685         0.001312   
     10. B(H   8,O   6)                  0.9586         0.522581   
     11. B(H  10,O   0)                  1.9878         0.011918   
     12. B(H  10,H   1)                  2.3353         0.000711   
     13. B(H  10,O   9)                  0.9673         0.506184   
     14. B(H  11,H   7)                  2.2676         0.000911   
     15. B(H  11,O   6)                  2.0442         0.009686   
     16. B(H  11,O   9)                  0.9664         0.507844   
     17. B(O  12,H   1)                  1.7806         0.025512   
     18. B(H  13,O   6)                  1.8199         0.022080   
     19. B(H  13,H   1)                  2.1647         0.001330   
     20. B(H  13,O  12)                  0.9742         0.493506   
     21. B(H  13,H   7)                  2.2745         0.000888   
     22. B(H  14,O  12)                  0.9588         0.522277   
     23. B(O  15,H   5)                  1.8602         0.019045   
     24. B(H  16,H  11)                  2.2056         0.001144   
     25. B(H  16,H  10)                  2.2561         0.000951   
     26. B(H  16,O   9)                  1.8253         0.021650   
     27. B(H  16,H   5)                  2.1748         0.001282   
     28. B(H  16,O  15)                  0.9753         0.491531   
     29. B(H  17,O  15)                  0.9578         0.524165   
     30. A(H   4,O   0,H  10)           84.1622         0.130751   
     31. A(H   2,O   0,H   4)          126.7959         0.187252   
     32. A(H   1,O   0,H  10)           98.0887         0.186633   
     33. A(H   1,O   0,H   4)          103.6653         0.185714   
     34. A(H   2,O   0,H  10)          132.3270         0.188186   
     35. A(H   1,O   0,H   2)          106.2749         0.318758   
     36. A(H  10,H   1,O  12)          109.3008         0.110399   
     37. A(O  12,H   1,H  13)           26.3603         0.113660   
     38. A(O   0,H   1,H  10)           57.4292         0.130727   
     39. A(O   0,H   1,H  13)          136.0277         0.137086   
     40. A(O   0,H   1,O  12)          162.3447         0.204986   
     41. A(H  10,H   1,H  13)           89.6282         0.097872   
     42. A(H   5,O   3,H   7)          104.7699         0.212930   
     43. A(H   4,O   3,H   5)          104.1436         0.318181   
     44. A(H   4,O   3,H   7)          100.5572         0.213436   
     45. A(O   3,H   4,H   7)           52.6623         0.139762   
     46. A(O   0,H   4,O   3)          153.8607         0.186556   
     47. A(O   0,H   4,H   7)          102.4647         0.110520   
     48. A(O  15,H   5,H  16)           26.5348         0.111889   
     49. A(H   7,H   5,H  16)           91.9766         0.099106   
     50. A(O   3,H   5,O  15)          158.3358         0.198060   
     51. A(O   3,H   5,H  16)          132.6293         0.136904   
     52. A(H   7,H   5,O  15)          111.2749         0.112008   
     53. A(O   3,H   5,H   7)           49.5462         0.137154   
     54. A(H   8,O   6,H  13)          125.6646         0.203028   
     55. A(H   7,O   6,H   8)          106.2686         0.316831   
     56. A(H   8,O   6,H  11)          130.9632         0.183628   
     57. A(H   7,O   6,H  11)           89.8273         0.181383   
     58. A(H  11,O   6,H  13)           92.4586         0.135238   
     59. A(H   7,O   6,H  13)          104.2743         0.200324   
     60. A(O   3,H   7,H  11)          104.5211         0.113078   
     61. A(H   4,H   7,H  13)           95.1792         0.098766   
     62. A(O   3,H   7,H   4)           26.7805         0.116450   
     63. A(H   4,H   7,O   6)          140.2320         0.138907   
     64. A(H   5,H   7,H  13)          134.0648         0.098302   
     65. A(O   3,H   7,H  13)          120.2990         0.112939   
     66. A(O   3,H   7,O   6)          166.1473         0.211339   
     67. A(H   4,H   7,H   5)           41.8630         0.099666   
     68. A(O   6,H   7,H  13)           50.8439         0.132524   
     69. A(O   6,H   7,H  11)           64.3565         0.132777   
     70. A(O   3,H   7,H   5)           25.6839         0.115146   
     71. A(H  11,H   7,H  13)           75.9447         0.097566   
     72. A(H   4,H   7,H  11)           90.2440         0.098822   
     73. A(H   5,H   7,O   6)          149.6388         0.136536   
     74. A(H   5,H   7,H  11)           86.8776         0.098356   
     75. A(H  10,O   9,H  11)          103.3663         0.319192   
     76. A(H  11,O   9,H  16)           99.7776         0.201790   
     77. A(H  10,O   9,H  16)          103.4719         0.201706   
     78. A(O   0,H  10,H   1)           24.4821         0.107013   
     79. A(H   1,H  10,O   9)          142.3549         0.131081   
     80. A(O   0,H  10,O   9)          159.0703         0.187463   
     81. A(O   0,H  10,H  16)          119.9940         0.108239   
     82. A(O   9,H  10,H  16)           51.8857         0.133945   
     83. A(H   1,H  10,H  16)          132.4378         0.097222   
     84. A(H   7,H  11,O   9)          128.0085         0.133551   
     85. A(O   6,H  11,O   9)          152.2159         0.183017   
     86. A(O   9,H  11,H  16)           54.6408         0.135906   
     87. A(O   6,H  11,H  16)          111.7695         0.108144   
     88. A(H   7,H  11,H  16)           88.5715         0.098071   
     89. A(O   6,H  11,H   7)           25.8161         0.107182   
     90. A(H  13,O  12,H  14)          105.4616         0.319331   
     91. A(H   1,O  12,H  14)          119.5194         0.206803   
     92. A(H   1,O  12,H  13)           99.3928         0.205302   
     93. A(O   6,H  13,O  12)          160.9419         0.201561   
     94. A(H   1,H  13,O  12)           54.2470         0.137217   
     95. A(O   6,H  13,H   7)           24.8818         0.110784   
     96. A(H   1,H  13,H   7)           87.1910         0.098331   
     97. A(H   7,H  13,O  12)          139.0876         0.133007   
     98. A(H   1,H  13,O   6)          106.7159         0.112867   
     99. A(H  16,O  15,H  17)          106.2239         0.319310   
    100. A(H   5,O  15,H  17)          132.9334         0.199351   
    101. A(H   5,O  15,H  16)           95.0284         0.197757   
    102. A(H   5,H  16,O  15)           58.4368         0.136771   
    103. A(H  10,H  16,H  11)           39.7390         0.098158   
    104. A(O   9,H  16,H  11)           25.5816         0.111966   
    105. A(H   5,H  16,H  11)           88.2932         0.098799   
    106. A(H  11,H  16,O  15)          138.6152         0.135561   
    107. A(O   9,H  16,H  10)           24.6424         0.111022   
    108. A(H   5,H  16,H  10)           86.5092         0.098396   
    109. A(H  10,H  16,O  15)          142.5658         0.133647   
    110. A(H   5,H  16,O   9)          102.8661         0.112563   
    111. A(O   9,H  16,O  15)          160.7985         0.200959   
    112. D(H  13,H   1,O   0,H   4)     38.2361         0.382600   
    113. D(H  10,H   1,O   0,H   2)   -138.5912         0.382600   
    114. D(H  13,H   1,O   0,H   2)    173.7263         0.382600   
    115. D(O  12,H   1,O   0,H  10)    -44.4494         0.382600   
    116. D(O  12,H   1,O   0,H   4)     41.4693         0.382600   
    117. D(O  12,H   1,O   0,H   2)    176.9594         0.382600   
    118. D(H  10,H   1,O   0,H   4)     85.9186         0.382600   
    119. D(H  13,H   1,O   0,H  10)    -47.6825         0.382600   
    120. D(O   0,H   4,O   3,H   5)    -88.0836         0.358633   
    121. D(H   7,H   4,O   0,H   1)    -40.3714         0.001582   
    122. D(H   7,H   4,O   3,H   5)   -108.3245         0.358633   
    123. D(O   0,H   4,O   3,H   7)     20.2409         0.358633   
    124. D(O   3,H   4,O   0,H  10)     40.1989         0.001582   
    125. D(H   7,H   4,O   0,H   2)   -163.1930         0.001582   
    126. D(O   3,H   4,O   0,H   1)    -56.7337         0.001582   
    127. D(O   3,H   4,O   0,H   2)   -179.5553         0.001582   
    128. D(H   7,H   4,O   0,H  10)     56.5612         0.001582   
    129. D(H   7,H   5,O   3,H   4)    105.1792         0.373690   
    130. D(H  16,H   5,O   3,H   4)     61.5053         0.373690   
    131. D(O  15,H   5,O   3,H   4)     73.9324         0.373690   
    132. D(H  16,H   5,O   3,H   7)    -43.6739         0.373690   
    133. D(O  15,H   5,O   3,H   7)    -31.2469         0.373690   
    134. D(H   4,H   7,O   6,H  13)     37.2047         0.395198   
    135. D(H   4,H   7,O   3,H   5)    107.8298         0.002365   
    136. D(H  13,H   7,O   6,H  11)    -92.4930         0.395198   
    137. D(O   3,H   7,H   5,H  16)    149.4441         0.001523   
    138. D(O   3,H   7,O   6,H   8)   -171.2792         0.395198   
    139. D(O   3,H   7,O   6,H  11)    -38.2757         0.395198   
    140. D(H  11,H   7,O   3,H   5)     48.0566         0.002365   
    141. D(H   5,H   7,O   6,H   8)   -112.8945         0.395198   
    142. D(H  13,H   7,O   3,H   4)     22.2244         0.002365   
    143. D(H  11,H   7,H   5,O  15)     34.2878         0.001523   
    144. D(H  11,H   7,H   5,O   3)   -133.8533         0.001523   
    145. D(H   4,H   7,H   5,O   3)    -39.9963         0.001523   
    146. D(H   4,H   7,H   5,O  15)    128.1449         0.001523   
    147. D(O   6,H   7,O   3,H   5)     83.2867         0.002365   
    148. D(H  13,H   7,H   5,H  16)     82.5564         0.001523   
    149. D(H  13,H   7,O   3,H   5)    130.0542         0.002365   
    150. D(O   6,H   7,O   3,H   4)    -24.5431         0.002365   
    151. D(H  11,H   7,H   5,H  16)     15.5908         0.001523   
    152. D(O   6,H   7,H   5,O   3)   -151.9370         0.001523   
    153. D(H  11,H   7,H   4,O   0)    -47.7862         0.001533   
    154. D(H  13,H   7,H   4,O   3)   -160.8581         0.001533   
    155. D(H  13,H   7,O   6,H   8)    134.5035         0.395198   
    156. D(O   3,H   7,H   5,O  15)    168.1412         0.001523   
    157. D(H  13,H   7,H   5,O  15)    101.2535         0.001523   
    158. D(H  13,H   7,H   4,O   0)     28.1223         0.001533   
    159. D(H   5,H   7,H   4,O   3)     38.1884         0.001533   
    160. D(H   5,H   7,H   4,O   0)   -132.8312         0.001533   
    161. D(H   4,H   7,H   5,H  16)    109.4479         0.001523   
    162. D(H  11,H   7,H   4,O   3)    123.2333         0.001533   
    163. D(O   6,H   7,H   5,H  16)     -2.4928         0.001523   
    164. D(O   3,H   7,O   6,H  13)     54.2173         0.395198   
    165. D(O   6,H   7,H   5,O  15)     16.2042         0.001523   
    166. D(H  11,H   7,O   6,H  13)     92.4930         0.395198   
    167. D(H   5,H   7,O   3,H   4)   -107.8298         0.002365   
    168. D(H  11,H   7,O   3,H   4)    -59.7732         0.002365   
    169. D(H   4,H   7,O   6,H   8)    171.7082         0.395198   
    170. D(H  11,H   7,O   6,H   8)   -133.0035         0.395198   
    171. D(H   4,H   7,O   6,H  11)    -55.2883         0.395198   
    172. D(H   5,H   7,O   6,H  13)    112.6020         0.395198   
    173. D(O   6,H   7,H   4,O   3)    171.0558         0.001533   
    174. D(O   6,H   7,H   4,O   0)      0.0363         0.001533   
    175. D(H   5,H   7,O   6,H  11)     20.1090         0.395198   
    176. D(H  13,H   7,H   5,O   3)    -66.8877         0.001523   
    177. D(O   3,H   7,H   4,O   0)   -171.0195         0.001533   
    178. D(H   1,H  10,O   9,H  16)    112.7795         0.390518   
    179. D(H   1,H  10,O   9,H  11)      9.1046         0.390518   
    180. D(O   0,H  10,O   9,H  16)     74.1849         0.390518   
    181. D(O   0,H  10,O   9,H  11)    -29.4900         0.390518   
    182. D(H  16,H  10,H   1,H  13)     81.0366         0.001506   
    183. D(H  16,H  10,H   1,O  12)     98.9224         0.001506   
    184. D(H  16,H  10,H   1,O   0)    -68.0727         0.001506   
    185. D(O   0,H  10,H   1,H  13)    149.1093         0.001506   
    186. D(O   0,H  10,H   1,O  12)    166.9951         0.001506   
    187. D(O   9,H  10,H   1,O  12)     19.5238         0.001506   
    188. D(H  16,H  10,O   0,H   1)    127.7691         0.001597   
    189. D(H   1,H  10,O   0,H   4)   -103.0227         0.001597   
    190. D(H   1,H  10,O   0,H   2)    120.8181         0.001597   
    191. D(H  16,H  10,O   0,H   2)   -111.4129         0.001597   
    192. D(O   9,H  10,O   0,H   4)    -36.1869         0.001597   
    193. D(H  16,H  10,O   0,H   4)     24.7463         0.001597   
    194. D(O   9,H  10,O   0,H   2)   -172.3461         0.001597   
    195. D(O   9,H  10,O   0,H   1)     66.8358         0.001597   
    196. D(O   9,H  10,H   1,H  13)      1.6380         0.001506   
    197. D(H  16,H  10,O   9,H  11)   -103.6749         0.390518   
    198. D(O   9,H  10,H   1,O   0)   -147.4713         0.001506   
    199. D(H  16,H  11,O   9,H  10)    106.4949         0.393833   
    200. D(H   7,H  11,O   9,H  16)    -53.6042         0.393833   
    201. D(H   7,H  11,O   9,H  10)     52.8907         0.393833   
    202. D(O   6,H  11,O   9,H  10)     38.2838         0.393833   
    203. D(H  16,H  11,H   7,H   5)    -15.3627         0.001511   
    204. D(H  16,H  11,H   7,H   4)    -57.1100         0.001511   
    205. D(H  16,H  11,H   7,H  13)   -152.3883         0.001511   
    206. D(H  16,H  11,H   7,O   6)    154.6147         0.001511   
    207. D(O   6,H  11,H   7,H   5)   -169.9775         0.001511   
    208. D(O   6,H  11,H   7,H   4)    148.2752         0.001511   
    209. D(O   9,H  11,H   7,H   5)     25.6832         0.001511   
    210. D(O   9,H  11,H   7,H  13)   -111.3424         0.001511   
    211. D(O   9,H  11,H   7,O   6)   -164.3394         0.001511   
    212. D(H   7,H  11,O   6,H  13)   -104.2801         0.001564   
    213. D(H   7,H  11,O   6,H   8)    111.6151         0.001564   
    214. D(O   9,H  11,O   6,H  13)    -77.1329         0.001564   
    215. D(H  16,H  11,O   6,H   7)    -27.4827         0.001564   
    216. D(O   9,H  11,O   6,H   8)    138.7622         0.001564   
    217. D(H  16,H  11,H   7,O   3)    -34.1980         0.001511   
    218. D(O   9,H  11,O   6,H   7)     27.1472         0.001564   
    219. D(H  16,H  11,O   6,H   8)     84.1324         0.001564   
    220. D(O   9,H  11,H   7,O   3)      6.8478         0.001511   
    221. D(O   6,H  11,O   9,H  16)    -68.2111         0.393833   
    222. D(O   9,H  11,H   7,H   4)    -16.0642         0.001511   
    223. D(O   6,H  11,H   7,O   3)    171.1872         0.001511   
    224. D(O   6,H  11,H   7,H  13)     52.9970         0.001511   
    225. D(H  16,H  11,O   6,H  13)   -131.7628         0.001564   
    226. D(H  14,O  12,H   1,H  10)     70.0774         0.001924   
    227. D(H  14,O  12,H   1,H  13)    113.8402         0.001924   
    228. D(H  14,O  12,H   1,O   0)    108.7807         0.001924   
    229. D(H  13,O  12,H   1,H  10)    -43.7628         0.001924   
    230. D(H  13,O  12,H   1,O   0)     -5.0596         0.001924   
    231. D(H   7,H  13,H   1,O  12)    165.3865         0.001521   
    232. D(H   7,H  13,H   1,O   0)    -16.8213         0.001521   
    233. D(O   6,H  13,H   1,H  10)    -39.7498         0.001521   
    234. D(O   6,H  13,H   1,O  12)   -178.9957         0.001521   
    235. D(O   6,H  13,H   1,O   0)     -1.2035         0.001521   
    236. D(O  12,H  13,H   1,H  10)    139.2459         0.001521   
    237. D(H   7,H  13,H   1,H  10)    -55.3676         0.001521   
    238. D(O  12,H  13,H   1,O   0)    177.7922         0.001521   
    239. D(H   7,H  13,O  12,H   1)    -22.6300         0.365804   
    240. D(H   7,H  13,O  12,H  14)   -146.9575         0.365804   
    241. D(O   6,H  13,O  12,H   1)      2.9468         0.365804   
    242. D(H   1,H  13,O  12,H  14)   -124.3275         0.365804   
    243. D(O   6,H  13,H   7,H  11)    -68.1941         0.001511   
    244. D(O   6,H  13,H   7,H   5)   -139.5036         0.001511   
    245. D(O   6,H  13,H   7,H   4)   -157.1464         0.001511   
    246. D(O   6,H  13,H   7,O   3)   -166.9994         0.001511   
    247. D(H   1,H  13,H   7,H  11)     74.0124         0.001511   
    248. D(H   1,H  13,H   7,H   5)      2.7028         0.001511   
    249. D(H   1,H  13,H   7,H   4)    -14.9400         0.001511   
    250. D(H   1,H  13,H   7,O   3)    -24.7930         0.001511   
    251. D(H   1,H  13,H   7,O   6)    142.2064         0.001511   
    252. D(O  12,H  13,H   7,H  11)     92.2308         0.001511   
    253. D(O  12,H  13,H   7,H   5)     20.9213         0.001511   
    254. D(O  12,H  13,H   7,H   4)      3.2785         0.001511   
    255. D(O  12,H  13,H   7,O   3)     -6.5745         0.001511   
    256. D(O  12,H  13,H   7,O   6)    160.4249         0.001511   
    257. D(H   7,H  13,O   6,H  11)     90.4476         0.001839   
    258. D(H   7,H  13,O   6,H   8)   -122.5732         0.001839   
    259. D(H   1,H  13,O   6,H  11)     50.7237         0.001839   
    260. D(H   1,H  13,O   6,H   8)   -162.2971         0.001839   
    261. D(O   6,H  13,O  12,H  14)   -121.3807         0.365804   
    262. D(H   1,H  13,O   6,H   7)    -39.7239         0.001839   
    263. D(O  12,H  13,O   6,H  11)     48.2271         0.001839   
    264. D(O  12,H  13,O   6,H   8)   -164.7938         0.001839   
    265. D(O  12,H  13,O   6,H   7)    -42.2205         0.001839   
    266. D(H  17,O  15,H   5,H  16)   -117.7064         0.001732   
    267. D(H  17,O  15,H   5,H   7)   -163.5248         0.001732   
    268. D(H  17,O  15,H   5,O   3)   -138.4640         0.001732   
    269. D(H  16,O  15,H   5,H   7)    -45.8184         0.001732   
    270. D(H  16,O  15,H   5,O   3)    -20.7576         0.001732   
    271. D(H  11,H  16,O  15,H   5)     41.4049         0.390563   
    272. D(H  11,H  16,O  15,H  17)    178.9443         0.390563   
    273. D(H  10,H  16,O  15,H  17)    114.4750         0.390563   
    274. D(O   9,H  16,O  15,H   5)     14.2252         0.390563   
    275. D(O   9,H  16,O  15,H  17)    151.7646         0.390563   
    276. D(H  10,H  16,H  11,H   7)    101.8932         0.001517   
    277. D(H  10,H  16,H  11,O   6)    113.4904         0.001517   
    278. D(H  10,H  16,H  11,O   9)    -38.7296         0.001517   
    279. D(O   9,H  16,H  11,H   7)    140.6228         0.001517   
    280. D(O   9,H  16,H  11,O   6)    152.2200         0.001517   
    281. D(H   5,H  16,H  11,H   7)     15.3011         0.001517   
    282. D(H   5,H  16,H  11,O   6)     26.8983         0.001517   
    283. D(O  15,H  16,H  11,H   7)    -19.0168         0.001517   
    284. D(O  15,H  16,H  11,O   6)     -7.4196         0.001517   
    285. D(O  15,H  16,H  11,O   9)   -159.6396         0.001517   
    286. D(H  11,H  16,H  10,O   0)   -116.2340         0.001511   
    287. D(H  11,H  16,H  10,O   9)     40.3848         0.001511   
    288. D(O   9,H  16,H  10,H   1)   -130.2674         0.001511   
    289. D(O   9,H  16,H  10,O   0)   -156.6188         0.001511   
    290. D(H   5,H  16,H  10,H   1)      1.6473         0.001511   
    291. D(H   5,H  16,H  10,O   0)    -24.7041         0.001511   
    292. D(H   5,H  16,H  10,O   9)    131.9147         0.001511   
    293. D(O  15,H  16,H  10,H   1)     21.1851         0.001511   
    294. D(O  15,H  16,H  10,O   0)     -5.1663         0.001511   
    295. D(O  15,H  16,H  10,O   9)    151.4525         0.001511   
    296. D(H  11,H  16,O   9,H  10)   -106.4096         0.001826   
    297. D(H  11,H  16,H  10,H   1)    -89.8826         0.001511   
    298. D(H  10,H  16,O   9,H  11)    106.4096         0.001826   
    299. D(H   5,H  16,O   9,H  11)     56.7787         0.001826   
    300. D(H   5,H  16,O   9,H  10)    -49.6310         0.001826   
    301. D(H   5,H  16,H  11,O   9)   -125.3217         0.001517   
    302. D(O  15,H  16,O   9,H  11)     44.3765         0.001826   
    303. D(O  15,H  16,O   9,H  10)    -62.0332         0.001826   
    304. D(H  11,H  16,H   5,O  15)   -154.0594         0.001521   
    305. D(H  11,H  16,H   5,H   7)    -16.0232         0.001521   
    306. D(H  11,H  16,H   5,O   3)     15.6973         0.001521   
    307. D(H  10,H  16,H   5,O  15)    166.1975         0.001521   
    308. D(H  10,H  16,H   5,H   7)    -55.7663         0.001521   
    309. D(H   5,H  16,O  15,H  17)    137.5394         0.390563   
    310. D(H  10,H  16,H   5,O   3)    -24.0459         0.001521   
    311. D(O   9,H  16,H   5,O  15)   -175.2447         0.001521   
    312. D(O   9,H  16,H   5,H   7)    -37.2084         0.001521   
    313. D(H  10,H  16,O  15,H   5)    -23.0643         0.390563   
    314. D(O   9,H  16,H   5,O   3)     -5.4880         0.001521   
    315. D(O  15,H  16,H   5,H   7)    138.0362         0.001521   
    316. D(O  15,H  16,H   5,O   3)    169.7567         0.001521   
    -----------------------------------------------------------------

Number of atoms                         .... 18
Number of degrees of freedom            .... 316

         *************************************************************
         *                GEOMETRY OPTIMIZATION CYCLE   1            *
         *************************************************************
---------------------------------
CARTESIAN COORDINATES (ANGSTROEM)
---------------------------------
  O      0.862065   -1.728538   -0.448765
  H      1.679686   -1.216793   -0.290371
  H      1.141594   -2.607406   -0.709910
  O     -0.751083    0.359939   -1.648316
  H     -0.283702   -0.473988   -1.502279
  H     -1.624922    0.215720   -1.247934
  O      0.590537    1.756310    0.198185
  H      0.069166    1.374794   -0.548651
  H      0.493944    2.707937    0.134574
  O     -0.675492   -0.446436    1.665684
  H     -0.188802   -1.063799    1.102054
  H     -0.260662    0.405216    1.474464
  O      2.803582    0.112403    0.084677
  H      2.165098    0.844551    0.158067
  H      3.282044    0.106258    0.915526
  O     -2.901034    0.010949    0.089937
  H     -2.258917   -0.224605    0.785219
  H     -3.643112   -0.584893    0.198028

----------------------------
CARTESIAN COORDINATES (A.U.)
----------------------------
  NO LB      ZA    FRAG     MASS         X           Y           Z
   0 O     8.0000    0    15.999    1.629067   -3.266463   -0.848043
   1 H     1.0000    0     1.008    3.174147   -2.299406   -0.548722
   2 H     1.0000    0     1.008    2.157300   -4.927283   -1.341535
   3 O     8.0000    0    15.999   -1.419341    0.680186   -3.114866
   4 H     1.0000    0     1.008   -0.536119   -0.895708   -2.838896
   5 H     1.0000    0     1.008   -3.070658    0.407652   -2.358253
   6 O     8.0000    0    15.999    1.115953    3.318945    0.374515
   7 H     1.0000    0     1.008    0.130705    2.597984   -1.036800
   8 H     1.0000    0     1.008    0.933419    5.117259    0.254308
   9 O     8.0000    0    15.999   -1.276495   -0.843642    3.147687
  10 H     1.0000    0     1.008   -0.356784   -2.010289    2.082580
  11 H     1.0000    0     1.008   -0.492580    0.765747    2.786333
  12 O     8.0000    0    15.999    5.298002    0.212411    0.160016
  13 H     1.0000    0     1.008    4.091442    1.595970    0.298703
  14 H     1.0000    0     1.008    6.202164    0.200799    1.730093
  15 O     8.0000    0    15.999   -5.482160    0.020691    0.169956
  16 H     1.0000    0     1.008   -4.268734   -0.424442    1.483849
  17 H     1.0000    0     1.008   -6.884484   -1.105288    0.374219

--------------------------------
INTERNAL COORDINATES (ANGSTROEM)
--------------------------------
 O      0   0   0     0.000000000000     0.00000000     0.00000000
 H      1   0   0     0.977484375273     0.00000000     0.00000000
 H      1   2   0     0.958510372552   106.27493477     0.00000000
 O      1   2   3     2.898776509328    98.93693428   217.36379635
 H      4   1   2     0.967060518199    17.68774027   124.66962170
 H      4   1   2     0.971956513331   102.88229172   220.86105108
 O      4   1   2     2.675698439107    79.12826050   323.03614401
 H      7   4   1     0.987494905705     8.78327180   161.28394938
 H      7   4   1     0.958629497824   114.94475867   170.52118116
 O      1   2   3     2.911831320708    95.36473628   144.88244721
 H     10   1   2     0.967307090209    14.11441329   246.09798043
 H     10   1   2     0.966416135215    91.01309885    37.47709467
 O      2   1   3     1.780608106108   162.34472926   176.95939705
 H     13   2   1     0.974211786143    99.39275309   354.94041717
 H     13   2   1     0.958787623653   119.51943813   108.78066515
 O      6   4   1     1.860185961571   158.33582154    55.78272716
 H     16   6   4     0.975303536408    95.02843990   339.24242281
 H     16   6   4     0.957805361923   132.93336833   221.53603047

---------------------------
INTERNAL COORDINATES (A.U.)
---------------------------
 O      0   0   0     0.000000000000     0.00000000     0.00000000
 H      1   0   0     1.847177769452     0.00000000     0.00000000
 H      1   2   0     1.811322100646   106.27493477     0.00000000
 O      1   2   3     5.477893726075    98.93693428   217.36379635
 H      4   1   2     1.827479534324    17.68774027   124.66962170
 H      4   1   2     1.836731624276   102.88229172   220.86105108
 O      4   1   2     5.056337266874    79.12826050   323.03614401
 H      7   4   1     1.866094930425     8.78327180   161.28394938
 H      7   4   1     1.811547214787   114.94475867   170.52118116
 O      1   2   3     5.502563744312    95.36473628   144.88244721
 H     10   1   2     1.827945487896    14.11441329   246.09798043
 H     10   1   2     1.826261826959    91.01309885    37.47709467
 O      2   1   3     3.364861672384   162.34472926   176.95939705
 H     13   2   1     1.840993472249    99.39275309   354.94041717
 H     13   2   1     1.811846029297   119.51943813   108.78066515
 O      6   4   1     3.515242025534   158.33582154    55.78272716
 H     16   6   4     1.843056581255    95.02843990   339.24242281
 H     16   6   4     1.809989823636   132.93336833   221.53603047

---------------------
BASIS SET INFORMATION
---------------------
There are 2 groups of distinct atoms

 Group   1 Type O   : 19s6p3d2f contracted to 5s4p3d2f pattern {88111/3111/111/11}
 Group   2 Type H   : 6s3p2d contracted to 4s3p2d pattern {3111/111/11}

Atom   0O    basis set group =>   1
Atom   1H    basis set group =>   2
Atom   2H    basis set group =>   2
Atom   3O    basis set group =>   1
Atom   4H    basis set group =>   2
Atom   5H    basis set group =>   2
Atom   6O    basis set group =>   1
Atom   7H    basis set group =>   2
Atom   8H    basis set group =>   2
Atom   9O    basis set group =>   1
Atom  10H    basis set group =>   2
Atom  11H    basis set group =>   2
Atom  12O    basis set group =>   1
Atom  13H    basis set group =>   2
Atom  14H    basis set group =>   2
Atom  15O    basis set group =>   1
Atom  16H    basis set group =>   2
Atom  17H    basis set group =>   2
---------------------------------
AUXILIARY/C BASIS SET INFORMATION
---------------------------------
There are 2 groups of distinct atoms

 Group   1 Type O   : 8s6p5d3f1g contracted to 8s6p4d3f1g pattern {11111111/111111/2111/111/1}
 Group   2 Type H   : 4s3p2d contracted to 4s2p1d pattern {1111/21/2}

Atom   0O    basis set group =>   1
Atom   1H    basis set group =>   2
Atom   2H    basis set group =>   2
Atom   3O    basis set group =>   1
Atom   4H    basis set group =>   2
Atom   5H    basis set group =>   2
Atom   6O    basis set group =>   1
Atom   7H    basis set group =>   2
Atom   8H    basis set group =>   2
Atom   9O    basis set group =>   1
Atom  10H    basis set group =>   2
Atom  11H    basis set group =>   2
Atom  12O    basis set group =>   1
Atom  13H    basis set group =>   2
Atom  14H    basis set group =>   2
Atom  15O    basis set group =>   1
Atom  16H    basis set group =>   2
Atom  17H    basis set group =>   2
----------------------------------
AUXILIARY/JK BASIS SET INFORMATION
----------------------------------
There are 2 groups of distinct atoms

 Group   1 Type O   : 14s10p6d2f1g contracted to 10s8p4d2f1g pattern {5111111111/31111111/3111/11/1}
 Group   2 Type H   : 4s2p2d contracted to 2s2p2d pattern {31/11/11}

Atom   0O    basis set group =>   1
Atom   1H    basis set group =>   2
Atom   2H    basis set group =>   2
Atom   3O    basis set group =>   1
Atom   4H    basis set group =>   2
Atom   5H    basis set group =>   2
Atom   6O    basis set group =>   1
Atom   7H    basis set group =>   2
Atom   8H    basis set group =>   2
Atom   9O    basis set group =>   1
Atom  10H    basis set group =>   2
Atom  11H    basis set group =>   2
Atom  12O    basis set group =>   1
Atom  13H    basis set group =>   2
Atom  14H    basis set group =>   2
Atom  15O    basis set group =>   1
Atom  16H    basis set group =>   2
Atom  17H    basis set group =>   2


           ************************************************************
           *        Program running with 24 parallel MPI-processes    *
           *              working on a common directory               *
           ************************************************************
------------------------------------------------------------------------------
                           ORCA GTO INTEGRAL CALCULATION
                           -- RI-GTO INTEGRALS CHOSEN --
------------------------------------------------------------------------------

                         BASIS SET STATISTICS AND STARTUP INFO

Gaussian basis set:
 # of primitive gaussian shells          ...  312
 # of primitive gaussian functions       ...  696
 # of contracted shells                  ...  192
 # of contracted basis functions         ...  552
 Highest angular momentum                ...    3
 Maximum contraction depth               ...    8
Auxiliary gaussian basis set:
 # of primitive gaussian shells          ...  294
 # of primitive gaussian functions       ...  822
 # of contracted shells                  ...  222
 # of contracted aux-basis functions     ...  678
 Highest angular momentum                ...    4
 Maximum contraction depth               ...    5
Ratio of auxiliary to basis functions    ...  1.23
Integral package used                  ... LIBINT
 One Electron integrals                  ... done
 Ordering auxiliary basis shells         ... done
 Integral threshhold             Thresh  ...  2.500e-11
 Primitive cut-off               TCut    ...  2.500e-12
 Pre-screening matrix                    ... done
 Shell pair data                         ... 
 Ordering of the shell pairs             ... done (   0.003 sec) 17560 of 18528 pairs
 Determination of significant pairs      ... done (   0.000 sec)
 Creation of shell pair data             ... done (   0.002 sec)
 Storage of shell pair data              ... done (   0.016 sec)
 Shell pair data done in (   0.022 sec)
 Computing two index integrals           ... done
 Cholesky decomposition of the V-matrix  ... done


Timings:
 Total evaluation time                   ...   0.494 sec (  0.008 min)
 One electron matrix time                ...   0.159 sec (  0.003 min) = 32.1%
 Schwartz matrix evaluation time         ...   0.232 sec (  0.004 min) = 46.9%
 Two index repulsion integral time       ...   0.010 sec (  0.000 min) =  2.0%
 Cholesky decomposition of V             ...   0.053 sec (  0.001 min) = 10.6%
 Three index repulsion integral time     ...   0.000 sec (  0.000 min) =  0.0%



           ************************************************************
           *        Program running with 24 parallel MPI-processes    *
           *              working on a common directory               *
           ************************************************************
-------------------------------------------------------------------------------
                                 ORCA SCF
-------------------------------------------------------------------------------

------------
SCF SETTINGS
------------
Hamiltonian:
 Density Functional     Method          .... DFT(GTOs)
 Exchange Functional    Exchange        .... B88
   X-Alpha parameter    XAlpha          ....  0.666667
   Becke's b parameter  XBeta           ....  0.004200
 Correlation Functional Correlation     .... LYP
 LDA part of GGA corr.  LDAOpt          .... VWN-3
 Gradients option       PostSCFGGA      .... off
 Hybrid DFT is turned on
   Fraction HF Exchange ScalHFX         ....  0.530000
   Scaling of DF-GGA-X  ScalDFX         ....  0.470000
   Scaling of DF-GGA-C  ScalDFC         ....  0.730000
   Scaling of DF-LDA-C  ScalLDAC        ....  0.730000
   Perturbative correction              ....  0.270000
   Density functional embedding theory  .... OFF
 RI-approximation to the Coulomb term is turned on
   Number of auxiliary basis functions  .... 678
   RI-JK (J+K treated both via RI)      .... on


General Settings:
 Integral files         IntName         .... 08_H2O_6_cage
 Hartree-Fock type      HFTyp           .... RHF
 Total Charge           Charge          ....    0
 Multiplicity           Mult            ....    1
 Number of Electrons    NEL             ....   60
 Basis Dimension        Dim             ....  552
 Nuclear Repulsion      ENuc            ....    300.0964983793 Eh

Convergence Acceleration:
 DIIS                   CNVDIIS         .... on
   Start iteration      DIISMaxIt       ....    12
   Startup error        DIISStart       ....  0.200000
   # of expansion vecs  DIISMaxEq       ....     5
   Bias factor          DIISBfac        ....   1.050
   Max. coefficient     DIISMaxC        ....  10.000
 Newton-Raphson         CNVNR           .... off
 SOSCF                  CNVSOSCF        .... on
   Start iteration      SOSCFMaxIt      ....   150
   Startup grad/error   SOSCFStart      ....  0.003300
 Level Shifting         CNVShift        .... on
   Level shift para.    LevelShift      ....    0.2500
   Turn off err/grad.   ShiftErr        ....    0.0010
 Zerner damping         CNVZerner       .... off
 Static damping         CNVDamp         .... on
   Fraction old density DampFac         ....    0.7000
   Max. Damping (<1)    DampMax         ....    0.9800
   Min. Damping (>=0)   DampMin         ....    0.0000
   Turn off err/grad.   DampErr         ....    0.1000
 Fernandez-Rico         CNVRico         .... off

SCF Procedure:
 Maximum # iterations   MaxIter         ....   125
 SCF integral mode      SCFMode         .... Direct
   Integral package                     .... LIBINT
 Reset frequency        DirectResetFreq ....    20
 Integral Threshold     Thresh          ....  2.500e-11 Eh
 Primitive CutOff       TCut            ....  2.500e-12 Eh

Convergence Tolerance:
 Convergence Check Mode ConvCheckMode   .... Total+1el-Energy
 Convergence forced     ConvForced      .... 0
 Energy Change          TolE            ....  1.000e-08 Eh
 1-El. energy change                    ....  1.000e-05 Eh
 Orbital Gradient       TolG            ....  1.000e-05
 Orbital Rotation angle TolX            ....  1.000e-05
 DIIS Error             TolErr          ....  5.000e-07


Diagonalization of the overlap matrix:
Smallest eigenvalue                        ... 3.507e-05
Time for diagonalization                   ...    0.054 sec
Threshold for overlap eigenvalues          ... 1.000e-08
Number of eigenvalues below threshold      ... 0
Time for construction of square roots      ...    0.045 sec
Total time needed                          ...    0.100 sec

-------------------
DFT GRID GENERATION
-------------------

General Integration Accuracy     IntAcc      ...  4.670
Radial Grid Type                 RadialGrid  ... Gauss-Chebyshev
Angular Grid (max. acc.)         AngularGrid ... Lebedev-302
Angular grid pruning method      GridPruning ... 3 (G Style)
Weight generation scheme         WeightScheme... Becke
Basis function cutoff            BFCut       ...    1.0000e-11
Integration weight cutoff        WCut        ...    1.0000e-14
Grids for H and He will be reduced by one unit

# of grid points (after initial pruning)     ...  78000 (   0.0 sec)
# of grid points (after weights+screening)   ...  71821 (   0.0 sec)
nearest neighbour list constructed           ...    0.0 sec
Grid point re-assignment to atoms done       ...    0.0 sec
Grid point division into batches done        ...    0.2 sec
Reduced shell lists constructed in    0.3 sec

Total number of grid points                  ...    71821
Total number of batches                      ...     1132
Average number of points per batch           ...       63
Average number of grid points per atom       ...     3990
Average number of shells per batch           ...   145.08 (75.56%)
Average number of basis functions per batch  ...   406.39 (73.62%)
Average number of large shells per batch     ...   117.55 (81.02%)
Average number of large basis fcns per batch ...   321.27 (79.05%)
Average number of aux-shells per batch       ...   145.08 (65.35%)
Average number of aux functions per batch    ...   406.39 (59.94%)
Maximum spatial batch extension              ...   2.85,  2.34,  2.33 au
Average spatial batch extension              ...   0.04,  0.04,  0.04 au

Time for grid setup =    0.427 sec

------------------------------
INITIAL GUESS: MODEL POTENTIAL
------------------------------
Loading Hartree-Fock densities                     ... done
Calculating cut-offs                               ... done
Setting up the integral package                    ... done
Initializing the effective Hamiltonian             ... done
Starting the Coulomb interaction                   ... done (   0.0 sec)
Reading the grid                                   ... done
Mapping shells                                     ... done
Starting the XC term evaluation                    ... done (   0.2 sec)
  promolecular density results
     # of electrons  =     59.993214953
     EX              =    -52.747916613
     EC              =     -0.682831575
     EX+EC           =    -53.430748188
Transforming the Hamiltonian                       ... done (   0.0 sec)
Diagonalizing the Hamiltonian                      ... done (   0.0 sec)
Back transforming the eigenvectors                 ... done (   0.0 sec)
Now organizing SCF variables                       ... done
                      ------------------
                      INITIAL GUESS DONE (   0.8 sec)
                      ------------------
--------------
SCF ITERATIONS
--------------
ITER       Energy         Delta-E        Max-DP      RMS-DP      [F,P]     Damp
  0   -457.5582535159   0.000000000000 0.04717149  0.00062549  0.3485878 0.7000
  1   -457.2279660719   0.330287443972 0.03771256  0.00058296  0.2516131 0.7000
                               ***Turning on DIIS***
  2   -457.3886132354  -0.160647163469 0.04502284  0.00088711  0.0963600 0.0000
  3   -457.8774008613  -0.488787625895 0.01130809  0.00015116  0.1889169 0.7000
  4   -458.0301477880  -0.152746926754 0.00970995  0.00014376  0.1695072 0.7000
  5   -458.0612167793  -0.031068991240 0.00778871  0.00011723  0.1346393 0.7000
  6   -458.0664959243  -0.005279145032 0.00629217  0.00009558  0.1045706 0.7000
  7   -458.0662970420   0.000198882335 0.02835492  0.00042205  0.0807645 0.0000
  8   -458.0298790358   0.036418006138 0.00543112  0.00006064  0.0160778 0.0000
  9   -458.0308678872  -0.000988851336 0.00110948  0.00001629  0.0053372 0.0000
                      *** Initiating the SOSCF procedure ***
                           *** Shutting down DIIS ***
                      *** Re-Reading the Fockian *** 
                      *** Removing any level shift *** 
ITER      Energy       Delta-E        Grad      Rot      Max-DP    RMS-DP
 10   -458.03094865  -0.0000807645  0.000183  0.000183  0.000398  0.000006
 11   -458.03095792  -0.0000092729  0.000121  0.000135  0.000305  0.000005
 12   -458.03095799  -0.0000000686  0.000095  0.000050  0.000175  0.000002
 13   -458.03095936  -0.0000013711  0.000004  0.000004  0.000012  0.000000
                  ***Gradient check signals convergence***
              ***Rediagonalizing the Fockian in SOSCF/NRSCF***

               *****************************************************
               *                     SUCCESS                       *
               *           SCF CONVERGED AFTER  14 CYCLES          *
               *****************************************************


----------------
TOTAL SCF ENERGY
----------------

Total Energy       :         -458.03095937 Eh          -12463.65604 eV

Components:
Nuclear Repulsion  :          300.09649838 Eh            8166.04087 eV
Electronic Energy  :         -758.12745774 Eh          -20629.69692 eV
One Electron Energy:        -1228.31613549 Eh          -33424.18130 eV
Two Electron Energy:          470.18867775 Eh           12794.48438 eV

Virial components:
Potential Energy   :         -914.28883220 Eh          -24879.06395 eV
Kinetic Energy     :          456.25787283 Eh           12415.40791 eV
Virial Ratio       :            2.00388615


DFT components:
N(Alpha)           :       29.999853054477 electrons
N(Beta)            :       29.999853054477 electrons
N(Total)           :       59.999706108955 electrons
E(X)               :      -25.337926823739 Eh       
E(C)               :       -1.520046125240 Eh       
E(XC)              :      -26.857972948980 Eh       
DFET-embed. en.    :        0.000000000000 Eh       

---------------
SCF CONVERGENCE
---------------

  Last Energy change         ...   -9.6270e-10  Tolerance :   1.0000e-08
  Last MAX-Density change    ...    1.1521e-05  Tolerance :   1.0000e-07
  Last RMS-Density change    ...    1.3560e-07  Tolerance :   5.0000e-09
  Last Orbital Gradient      ...    1.9641e-06  Tolerance :   1.0000e-05
  Last Orbital Rotation      ...    1.5336e-06  Tolerance :   1.0000e-05

             **** THE GBW FILE WAS UPDATED (08_H2O_6_cage.gbw) ****
             **** DENSITY FILE WAS UPDATED (08_H2O_6_cage.scfp) ****
             **** ENERGY FILE WAS UPDATED (08_H2O_6_cage.en.tmp) ****
             **** THE GBW FILE WAS UPDATED (08_H2O_6_cage.gbw) ****
             **** DENSITY FILE WAS UPDATED (08_H2O_6_cage.scfp) ****
----------------
ORBITAL ENERGIES
----------------

  NO   OCC          E(Eh)            E(eV) 
   0   2.0000     -19.744448      -537.2738 
   1   2.0000     -19.740197      -537.1581 
   2   2.0000     -19.740046      -537.1540 
   3   2.0000     -19.722305      -536.6712 
   4   2.0000     -19.719690      -536.6000 
   5   2.0000     -19.715643      -536.4899 
   6   2.0000      -1.178683       -32.0736 
   7   2.0000      -1.166874       -31.7522 
   8   2.0000      -1.160700       -31.5842 
   9   2.0000      -1.151873       -31.3441 
  10   2.0000      -1.143012       -31.1029 
  11   2.0000      -1.134095       -30.8603 
  12   2.0000      -0.640981       -17.4420 
  13   2.0000      -0.628324       -17.0976 
  14   2.0000      -0.617933       -16.8148 
  15   2.0000      -0.613967       -16.7069 
  16   2.0000      -0.598727       -16.2922 
  17   2.0000      -0.594955       -16.1895 
  18   2.0000      -0.526111       -14.3162 
  19   2.0000      -0.495723       -13.4893 
  20   2.0000      -0.488313       -13.2877 
  21   2.0000      -0.471226       -12.8227 
  22   2.0000      -0.470381       -12.7997 
  23   2.0000      -0.446535       -12.1508 
  24   2.0000      -0.416230       -11.3262 
  25   2.0000      -0.412709       -11.2304 
  26   2.0000      -0.408921       -11.1273 
  27   2.0000      -0.395381       -10.7589 
  28   2.0000      -0.388525       -10.5723 
  29   2.0000      -0.385013       -10.4767 
  30   0.0000      -0.003155        -0.0858 
  31   0.0000       0.013343         0.3631 
  32   0.0000       0.016146         0.4394 
  33   0.0000       0.026686         0.7262 
  34   0.0000       0.041816         1.1379 
  35   0.0000       0.051045         1.3890 
  36   0.0000       0.053376         1.4524 
  37   0.0000       0.055290         1.5045 
  38   0.0000       0.057660         1.5690 
  39   0.0000       0.070950         1.9306 
  40   0.0000       0.076176         2.0729 
  41   0.0000       0.083181         2.2635 
  42   0.0000       0.095723         2.6048 
  43   0.0000       0.109025         2.9667 
  44   0.0000       0.115414         3.1406 
  45   0.0000       0.121710         3.3119 
  46   0.0000       0.134381         3.6567 
  47   0.0000       0.136891         3.7250 
  48   0.0000       0.144273         3.9259 
  49   0.0000       0.149517         4.0686 
  50   0.0000       0.154413         4.2018 
  51   0.0000       0.156239         4.2515 
  52   0.0000       0.165167         4.4944 
  53   0.0000       0.174185         4.7398 
  54   0.0000       0.176302         4.7974 
  55   0.0000       0.178130         4.8472 
  56   0.0000       0.181168         4.9298 
  57   0.0000       0.187440         5.1005 
  58   0.0000       0.187785         5.1099 
  59   0.0000       0.194052         5.2804 
  60   0.0000       0.197397         5.3714 
  61   0.0000       0.217940         5.9305 
  62   0.0000       0.218570         5.9476 
  63   0.0000       0.226090         6.1522 
  64   0.0000       0.230227         6.2648 
  65   0.0000       0.237301         6.4573 
  66   0.0000       0.244338         6.6488 
  67   0.0000       0.250908         6.8276 
  68   0.0000       0.258867         7.0441 
  69   0.0000       0.260176         7.0798 
  70   0.0000       0.268300         7.3008 
  71   0.0000       0.287178         7.8145 
  72   0.0000       0.301461         8.2032 
  73   0.0000       0.308044         8.3823 
  74   0.0000       0.316734         8.6188 
  75   0.0000       0.320674         8.7260 
  76   0.0000       0.329933         8.9779 
  77   0.0000       0.334401         9.0995 
  78   0.0000       0.339306         9.2330 
  79   0.0000       0.340690         9.2706 
  80   0.0000       0.347403         9.4533 
  81   0.0000       0.356103         9.6900 
  82   0.0000       0.358789         9.7631 
  83   0.0000       0.362298         9.8586 
  84   0.0000       0.369510        10.0549 
  85   0.0000       0.373685        10.1685 
  86   0.0000       0.382741        10.4149 
  87   0.0000       0.384852        10.4724 
  88   0.0000       0.388104        10.5609 
  89   0.0000       0.392559        10.6821 
  90   0.0000       0.401796        10.9334 
  91   0.0000       0.406791        11.0693 
  92   0.0000       0.408492        11.1156 
  93   0.0000       0.415391        11.3034 
  94   0.0000       0.419806        11.4235 
  95   0.0000       0.420719        11.4483 
  96   0.0000       0.428738        11.6665 
  97   0.0000       0.438015        11.9190 
  98   0.0000       0.443602        12.0710 
  99   0.0000       0.451131        12.2759 
 100   0.0000       0.457979        12.4622 
 101   0.0000       0.465142        12.6572 
 102   0.0000       0.467941        12.7333 
 103   0.0000       0.472638        12.8611 
 104   0.0000       0.481032        13.0895 
 105   0.0000       0.487200        13.2574 
 106   0.0000       0.498260        13.5583 
 107   0.0000       0.514473        13.9995 
 108   0.0000       0.515328        14.0228 
 109   0.0000       0.530945        14.4477 
 110   0.0000       0.535824        14.5805 
 111   0.0000       0.547973        14.9111 
 112   0.0000       0.553184        15.0529 
 113   0.0000       0.562146        15.2968 
 114   0.0000       0.578512        15.7421 
 115   0.0000       0.594112        16.1666 
 116   0.0000       0.606301        16.4983 
 117   0.0000       0.618147        16.8206 
 118   0.0000       0.623925        16.9779 
 119   0.0000       0.624488        16.9932 
 120   0.0000       0.640539        17.4299 
 121   0.0000       0.653167        17.7736 
 122   0.0000       0.667029        18.1508 
 123   0.0000       0.672073        18.2880 
 124   0.0000       0.676791        18.4164 
 125   0.0000       0.687550        18.7092 
 126   0.0000       0.699819        19.0430 
 127   0.0000       0.704044        19.1580 
 128   0.0000       0.710071        19.3220 
 129   0.0000       0.714116        19.4321 
 130   0.0000       0.732738        19.9388 
 131   0.0000       0.738994        20.1090 
 132   0.0000       0.745848        20.2956 
 133   0.0000       0.756111        20.5748 
 134   0.0000       0.765673        20.8350 
 135   0.0000       0.767029        20.8719 
 136   0.0000       0.788470        21.4554 
 137   0.0000       0.790825        21.5195 
 138   0.0000       0.794151        21.6099 
 139   0.0000       0.807794        21.9812 
 140   0.0000       0.813029        22.1236 
 141   0.0000       0.821150        22.3446 
 142   0.0000       0.824169        22.4268 
 143   0.0000       0.837651        22.7936 
 144   0.0000       0.847994        23.0751 
 145   0.0000       0.851338        23.1661 
 146   0.0000       0.857181        23.3251 
 147   0.0000       0.864418        23.5220 
 148   0.0000       0.870000        23.6739 
 149   0.0000       0.882145        24.0044 
 150   0.0000       0.887871        24.1602 
 151   0.0000       0.894263        24.3341 
 152   0.0000       0.901446        24.5296 
 153   0.0000       0.901653        24.5352 
 154   0.0000       0.909599        24.7514 
 155   0.0000       0.910713        24.7818 
 156   0.0000       0.922415        25.1002 
 157   0.0000       0.927888        25.2491 
 158   0.0000       0.945613        25.7314 
 159   0.0000       0.952485        25.9184 
 160   0.0000       0.954712        25.9790 
 161   0.0000       0.960477        26.1359 
 162   0.0000       0.965851        26.2821 
 163   0.0000       0.976391        26.5689 
 164   0.0000       0.983009        26.7490 
 165   0.0000       0.993945        27.0466 
 166   0.0000       0.996052        27.1040 
 167   0.0000       1.010569        27.4990 
 168   0.0000       1.024424        27.8760 
 169   0.0000       1.028657        27.9912 
 170   0.0000       1.038999        28.2726 
 171   0.0000       1.054118        28.6840 
 172   0.0000       1.055596        28.7242 
 173   0.0000       1.058052        28.7910 
 174   0.0000       1.074387        29.2356 
 175   0.0000       1.079254        29.3680 
 176   0.0000       1.085306        29.5327 
 177   0.0000       1.094921        29.7943 
 178   0.0000       1.102623        30.0039 
 179   0.0000       1.104329        30.0503 
 180   0.0000       1.115657        30.3586 
 181   0.0000       1.127630        30.6844 
 182   0.0000       1.136673        30.9305 
 183   0.0000       1.142145        31.0794 
 184   0.0000       1.151327        31.3292 
 185   0.0000       1.160209        31.5709 
 186   0.0000       1.165812        31.7234 
 187   0.0000       1.173864        31.9425 
 188   0.0000       1.176502        32.0143 
 189   0.0000       1.182647        32.1815 
 190   0.0000       1.190005        32.3817 
 191   0.0000       1.193334        32.4723 
 192   0.0000       1.204084        32.7648 
 193   0.0000       1.208964        32.8976 
 194   0.0000       1.215546        33.0767 
 195   0.0000       1.229974        33.4693 
 196   0.0000       1.241270        33.7767 
 197   0.0000       1.248451        33.9721 
 198   0.0000       1.259376        34.2694 
 199   0.0000       1.265009        34.4226 
 200   0.0000       1.283093        34.9147 
 201   0.0000       1.297407        35.3042 
 202   0.0000       1.298172        35.3251 
 203   0.0000       1.302172        35.4339 
 204   0.0000       1.320242        35.9256 
 205   0.0000       1.325721        36.0747 
 206   0.0000       1.333740        36.2929 
 207   0.0000       1.354719        36.8638 
 208   0.0000       1.362026        37.0626 
 209   0.0000       1.375828        37.4382 
 210   0.0000       1.391636        37.8683 
 211   0.0000       1.399867        38.0923 
 212   0.0000       1.405324        38.2408 
 213   0.0000       1.410994        38.3951 
 214   0.0000       1.414615        38.4936 
 215   0.0000       1.436080        39.0777 
 216   0.0000       1.446000        39.3477 
 217   0.0000       1.457631        39.6642 
 218   0.0000       1.482975        40.3538 
 219   0.0000       1.490291        40.5529 
 220   0.0000       1.500917        40.8420 
 221   0.0000       1.515773        41.2463 
 222   0.0000       1.523382        41.4533 
 223   0.0000       1.529492        41.6196 
 224   0.0000       1.537957        41.8499 
 225   0.0000       1.549375        42.1606 
 226   0.0000       1.562118        42.5074 
 227   0.0000       1.568406        42.6785 
 228   0.0000       1.574224        42.8368 
 229   0.0000       1.575993        42.8850 
 230   0.0000       1.597515        43.4706 
 231   0.0000       1.604473        43.6599 
 232   0.0000       1.621878        44.1335 
 233   0.0000       1.632420        44.4204 
 234   0.0000       1.638184        44.5773 
 235   0.0000       1.661251        45.2049 
 236   0.0000       1.670840        45.4659 
 237   0.0000       1.681660        45.7603 
 238   0.0000       1.687162        45.9100 
 239   0.0000       1.697157        46.1820 
 240   0.0000       1.705185        46.4004 
 241   0.0000       1.729863        47.0720 
 242   0.0000       1.743434        47.4412 
 243   0.0000       1.749068        47.5946 
 244   0.0000       1.763235        47.9801 
 245   0.0000       1.784507        48.5589 
 246   0.0000       1.791679        48.7541 
 247   0.0000       1.802964        49.0611 
 248   0.0000       1.814033        49.3623 
 249   0.0000       1.822534        49.5937 
 250   0.0000       1.836824        49.9825 
 251   0.0000       1.854747        50.4702 
 252   0.0000       1.880336        51.1665 
 253   0.0000       1.881987        51.2115 
 254   0.0000       1.893300        51.5193 
 255   0.0000       1.916620        52.1539 
 256   0.0000       1.926549        52.4241 
 257   0.0000       1.936312        52.6897 
 258   0.0000       1.952914        53.1415 
 259   0.0000       1.962961        53.4149 
 260   0.0000       1.989811        54.1455 
 261   0.0000       1.998826        54.3908 
 262   0.0000       2.010824        54.7173 
 263   0.0000       2.023179        55.0535 
 264   0.0000       2.073451        56.4215 
 265   0.0000       2.112339        57.4797 
 266   0.0000       2.117637        57.6238 
 267   0.0000       2.150932        58.5298 
 268   0.0000       2.169107        59.0244 
 269   0.0000       2.174242        59.1641 
 270   0.0000       2.210215        60.1430 
 271   0.0000       2.224423        60.5296 
 272   0.0000       2.240762        60.9742 
 273   0.0000       2.252608        61.2966 
 274   0.0000       2.272266        61.8315 
 275   0.0000       2.278309        61.9959 
 276   0.0000       2.295305        62.4584 
 277   0.0000       2.309943        62.8567 
 278   0.0000       2.314896        62.9915 
 279   0.0000       2.323638        63.2294 
 280   0.0000       2.340440        63.6866 
 281   0.0000       2.349374        63.9297 
 282   0.0000       2.366071        64.3841 
 283   0.0000       2.376152        64.6584 
 284   0.0000       2.386760        64.9470 
 285   0.0000       2.400344        65.3167 
 286   0.0000       2.407658        65.5157 
 287   0.0000       2.414430        65.7000 
 288   0.0000       2.417374        65.7801 
 289   0.0000       2.433804        66.2272 
 290   0.0000       2.442693        66.4690 
 291   0.0000       2.456420        66.8426 
 292   0.0000       2.469555        67.2000 
 293   0.0000       2.487915        67.6996 
 294   0.0000       2.497014        67.9472 
 295   0.0000       2.521853        68.6231 
 296   0.0000       2.537503        69.0490 
 297   0.0000       2.544722        69.2454 
 298   0.0000       2.561628        69.7054 
 299   0.0000       2.573860        70.0383 
 300   0.0000       2.576370        70.1066 
 301   0.0000       2.582384        70.2702 
 302   0.0000       2.597567        70.6834 
 303   0.0000       2.613850        71.1265 
 304   0.0000       2.619198        71.2720 
 305   0.0000       2.635101        71.7048 
 306   0.0000       2.638027        71.7844 
 307   0.0000       2.651948        72.1632 
 308   0.0000       2.663624        72.4809 
 309   0.0000       2.672870        72.7325 
 310   0.0000       2.685823        73.0849 
 311   0.0000       2.708845        73.7114 
 312   0.0000       2.713269        73.8318 
 313   0.0000       2.723887        74.1207 
 314   0.0000       2.735802        74.4450 
 315   0.0000       2.745651        74.7130 
 316   0.0000       2.755788        74.9888 
 317   0.0000       2.766134        75.2703 
 318   0.0000       2.783992        75.7563 
 319   0.0000       2.789360        75.9024 
 320   0.0000       2.800189        76.1970 
 321   0.0000       2.810816        76.4862 
 322   0.0000       2.824005        76.8451 
 323   0.0000       2.840130        77.2839 
 324   0.0000       2.853577        77.6498 
 325   0.0000       2.862415        77.8903 
 326   0.0000       2.870047        78.0980 
 327   0.0000       2.876394        78.2707 
 328   0.0000       2.883245        78.4571 
 329   0.0000       2.899731        78.9057 
 330   0.0000       2.908363        79.1406 
 331   0.0000       2.923809        79.5609 
 332   0.0000       2.947892        80.2162 
 333   0.0000       2.953856        80.3785 
 334   0.0000       2.963936        80.6528 
 335   0.0000       2.972475        80.8852 
 336   0.0000       2.988882        81.3316 
 337   0.0000       3.012269        81.9680 
 338   0.0000       3.016886        82.0936 
 339   0.0000       3.045410        82.8698 
 340   0.0000       3.046040        82.8870 
 341   0.0000       3.067291        83.4652 
 342   0.0000       3.076220        83.7082 
 343   0.0000       3.096145        84.2504 
 344   0.0000       3.119379        84.8826 
 345   0.0000       3.155897        85.8763 
 346   0.0000       3.168982        86.2324 
 347   0.0000       3.217656        87.5569 
 348   0.0000       3.713739       101.0560 
 349   0.0000       3.742088       101.8274 
 350   0.0000       3.818159       103.8974 
 351   0.0000       3.845275       104.6353 
 352   0.0000       3.879806       105.5749 
 353   0.0000       3.896937       106.0411 
 354   0.0000       3.914183       106.5103 
 355   0.0000       3.932072       106.9971 
 356   0.0000       3.940875       107.2367 
 357   0.0000       3.947147       107.4073 
 358   0.0000       3.974359       108.1478 
 359   0.0000       3.987557       108.5070 
 360   0.0000       3.999401       108.8292 
 361   0.0000       4.002848       108.9230 
 362   0.0000       4.026021       109.5536 
 363   0.0000       4.047426       110.1361 
 364   0.0000       4.072269       110.8121 
 365   0.0000       4.085741       111.1787 
 366   0.0000       4.101973       111.6204 
 367   0.0000       4.108318       111.7930 
 368   0.0000       4.123569       112.2080 
 369   0.0000       4.142378       112.7198 
 370   0.0000       4.151944       112.9801 
 371   0.0000       4.160863       113.2228 
 372   0.0000       4.185340       113.8889 
 373   0.0000       4.193325       114.1062 
 374   0.0000       4.202436       114.3541 
 375   0.0000       4.226598       115.0116 
 376   0.0000       4.236626       115.2844 
 377   0.0000       4.238104       115.3247 
 378   0.0000       4.254754       115.7778 
 379   0.0000       4.263812       116.0242 
 380   0.0000       4.274247       116.3082 
 381   0.0000       4.282461       116.5317 
 382   0.0000       4.296837       116.9229 
 383   0.0000       4.317775       117.4926 
 384   0.0000       4.336263       117.9957 
 385   0.0000       4.344177       118.2111 
 386   0.0000       4.351344       118.4061 
 387   0.0000       4.363364       118.7332 
 388   0.0000       4.376967       119.1033 
 389   0.0000       4.397325       119.6573 
 390   0.0000       4.408532       119.9623 
 391   0.0000       4.420187       120.2794 
 392   0.0000       4.439596       120.8075 
 393   0.0000       4.446621       120.9987 
 394   0.0000       4.460839       121.3856 
 395   0.0000       4.475625       121.7879 
 396   0.0000       4.481422       121.9457 
 397   0.0000       4.492320       122.2423 
 398   0.0000       4.500893       122.4755 
 399   0.0000       4.522874       123.0736 
 400   0.0000       4.533736       123.3692 
 401   0.0000       4.537720       123.4776 
 402   0.0000       4.545630       123.6929 
 403   0.0000       4.566205       124.2527 
 404   0.0000       4.573390       124.4483 
 405   0.0000       4.577635       124.5638 
 406   0.0000       4.598024       125.1186 
 407   0.0000       4.609343       125.4266 
 408   0.0000       4.639268       126.2409 
 409   0.0000       4.655722       126.6886 
 410   0.0000       4.676732       127.2603 
 411   0.0000       4.688544       127.5818 
 412   0.0000       4.705205       128.0351 
 413   0.0000       4.744988       129.1177 
 414   0.0000       4.753996       129.3628 
 415   0.0000       4.770798       129.8200 
 416   0.0000       4.800455       130.6270 
 417   0.0000       4.812424       130.9527 
 418   0.0000       4.825840       131.3178 
 419   0.0000       4.860139       132.2511 
 420   0.0000       4.900878       133.3597 
 421   0.0000       4.903607       133.4339 
 422   0.0000       4.951932       134.7489 
 423   0.0000       4.959979       134.9679 
 424   0.0000       4.975577       135.3923 
 425   0.0000       4.992284       135.8470 
 426   0.0000       5.010919       136.3540 
 427   0.0000       5.026568       136.7799 
 428   0.0000       5.035871       137.0330 
 429   0.0000       5.062002       137.7441 
 430   0.0000       5.065869       137.8493 
 431   0.0000       5.084037       138.3437 
 432   0.0000       5.097348       138.7059 
 433   0.0000       5.111566       139.0928 
 434   0.0000       5.131020       139.6221 
 435   0.0000       5.148174       140.0889 
 436   0.0000       5.172982       140.7640 
 437   0.0000       5.176982       140.8728 
 438   0.0000       5.187627       141.1625 
 439   0.0000       5.204784       141.6294 
 440   0.0000       5.233614       142.4139 
 441   0.0000       5.240460       142.6002 
 442   0.0000       5.245296       142.7318 
 443   0.0000       5.270446       143.4161 
 444   0.0000       5.283802       143.7796 
 445   0.0000       5.303639       144.3194 
 446   0.0000       5.315540       144.6432 
 447   0.0000       5.331920       145.0889 
 448   0.0000       5.367055       146.0450 
 449   0.0000       5.393298       146.7591 
 450   0.0000       5.413418       147.3066 
 451   0.0000       5.443989       148.1385 
 452   0.0000       5.503168       149.7488 
 453   0.0000       5.541280       150.7859 
 454   0.0000       5.601218       152.4169 
 455   0.0000       5.615244       152.7986 
 456   0.0000       5.649114       153.7202 
 457   0.0000       5.671865       154.3393 
 458   0.0000       5.696525       155.0103 
 459   0.0000       5.718484       155.6079 
 460   0.0000       5.789416       157.5380 
 461   0.0000       5.830559       158.6576 
 462   0.0000       6.101993       166.0437 
 463   0.0000       6.150596       167.3662 
 464   0.0000       6.164730       167.7508 
 465   0.0000       6.213454       169.0767 
 466   0.0000       6.288515       171.1192 
 467   0.0000       6.340869       172.5438 
 468   0.0000       6.347471       172.7235 
 469   0.0000       6.349562       172.7804 
 470   0.0000       6.359624       173.0542 
 471   0.0000       6.405159       174.2932 
 472   0.0000       6.427094       174.8901 
 473   0.0000       6.480912       176.3546 
 474   0.0000       6.627707       180.3491 
 475   0.0000       6.639772       180.6774 
 476   0.0000       6.656593       181.1351 
 477   0.0000       6.662112       181.2853 
 478   0.0000       6.680148       181.7761 
 479   0.0000       6.699987       182.3159 
 480   0.0000       6.731086       183.1622 
 481   0.0000       6.752437       183.7432 
 482   0.0000       6.768126       184.1701 
 483   0.0000       6.798788       185.0044 
 484   0.0000       6.833554       185.9505 
 485   0.0000       6.855482       186.5472 
 486   0.0000       6.922097       188.3598 
 487   0.0000       6.936605       188.7546 
 488   0.0000       6.972184       189.7228 
 489   0.0000       6.993786       190.3106 
 490   0.0000       7.013425       190.8450 
 491   0.0000       7.031220       191.3292 
 492   0.0000       7.046276       191.7389 
 493   0.0000       7.062602       192.1832 
 494   0.0000       7.071213       192.4175 
 495   0.0000       7.086561       192.8351 
 496   0.0000       7.101950       193.2539 
 497   0.0000       7.110282       193.4806 
 498   0.0000       7.113256       193.5615 
 499   0.0000       7.127268       193.9428 
 500   0.0000       7.140077       194.2914 
 501   0.0000       7.155903       194.7220 
 502   0.0000       7.156912       194.7495 
 503   0.0000       7.169859       195.1018 
 504   0.0000       7.183688       195.4781 
 505   0.0000       7.212393       196.2592 
 506   0.0000       7.220974       196.4927 
 507   0.0000       7.228461       196.6964 
 508   0.0000       7.232800       196.8145 
 509   0.0000       7.241707       197.0569 
 510   0.0000       7.261000       197.5819 
 511   0.0000       7.265934       197.7161 
 512   0.0000       7.270903       197.8513 
 513   0.0000       7.276849       198.0131 
 514   0.0000       7.301510       198.6842 
 515   0.0000       7.316999       199.1057 
 516   0.0000       7.332855       199.5371 
 517   0.0000       7.353105       200.0882 
 518   0.0000       7.381614       200.8639 
 519   0.0000       7.433572       202.2778 
 520   0.0000       7.443037       202.5353 
 521   0.0000       7.476791       203.4538 
 522   0.0000       7.522793       204.7056 
 523   0.0000       7.612345       207.1424 
 524   0.0000       7.659544       208.4268 
 525   0.0000       7.664175       208.5528 
 526   0.0000       7.688615       209.2179 
 527   0.0000       7.730182       210.3490 
 528   0.0000       7.745115       210.7553 
 529   0.0000       7.762741       211.2349 
 530   0.0000       7.775705       211.5877 
 531   0.0000       7.790179       211.9815 
 532   0.0000       7.799048       212.2229 
 533   0.0000       7.850317       213.6180 
 534   0.0000       7.858885       213.8511 
 535   0.0000       7.900279       214.9775 
 536   0.0000       7.902942       215.0500 
 537   0.0000       7.918898       215.4842 
 538   0.0000       7.947557       216.2640 
 539   0.0000       8.038895       218.7495 
 540   0.0000       8.666833       235.8365 
 541   0.0000       8.673775       236.0254 
 542   0.0000       8.716142       237.1783 
 543   0.0000       8.730326       237.5642 
 544   0.0000       8.764955       238.5066 
 545   0.0000       8.801757       239.5080 
 546   0.0000      16.245525       442.0632 
 547   0.0000      16.393999       446.1034 
 548   0.0000      16.712428       454.7683 
 549   0.0000      17.153811       466.7789 
 550   0.0000      17.293042       470.5676 
 551   0.0000      17.699182       481.6192 

                    ********************************
                    * MULLIKEN POPULATION ANALYSIS *
                    ********************************

-----------------------
MULLIKEN ATOMIC CHARGES
-----------------------
   0 O :   -0.521490
   1 H :    0.345222
   2 H :    0.119542
   3 O :   -0.530563
   4 H :    0.277513
   5 H :    0.305421
   6 O :   -0.484616
   7 H :    0.351005
   8 H :    0.108300
   9 O :   -0.603329
  10 H :    0.327646
  11 H :    0.320352
  12 O :   -0.448820
  13 H :    0.309847
  14 H :    0.147067
  15 O :   -0.472751
  16 H :    0.293362
  17 H :    0.156293
Sum of atomic charges:    0.0000000

--------------------------------
MULLIKEN REDUCED ORBITAL CHARGES
--------------------------------
  0 O s       :     3.984374  s :     3.984374
      pz      :     1.785308  p :     4.530628
      px      :     1.487733
      py      :     1.257587
      dz2     :    -0.000157  d :     0.006600
      dxz     :     0.001962
      dyz     :    -0.001286
      dx2y2   :     0.000527
      dxy     :     0.005554
      f0      :     0.000126  f :    -0.000112
      f+1     :     0.000106
      f-1     :     0.000118
      f+2     :    -0.000015
      f-2     :     0.000006
      f+3     :    -0.000068
      f-3     :    -0.000385
  1 H s       :     0.536900  s :     0.536900
      pz      :     0.057026  p :     0.077539
      px      :     0.005945
      py      :     0.014568
      dz2     :     0.001306  d :     0.040339
      dxz     :     0.012146
      dyz     :     0.010384
      dx2y2   :     0.014512
      dxy     :     0.001992
  2 H s       :     0.755274  s :     0.755274
      pz      :     0.061706  p :     0.109769
      px      :     0.031941
      py      :     0.016122
      dz2     :     0.002179  d :     0.015414
      dxz     :     0.000480
      dyz     :     0.007020
      dx2y2   :     0.001468
      dxy     :     0.004267
  3 O s       :     3.969406  s :     3.969406
      pz      :     1.741449  p :     4.551520
      px      :     1.347665
      py      :     1.462405
      dz2     :     0.001689  d :     0.009893
      dxz     :     0.003427
      dyz     :     0.001034
[...]
      1       0.002723   0.025853   0.000178   0.008451   0.000692  -0.001769
      2       0.000320   0.007959   0.000535   0.002632   0.000040  -0.000229
      3      -0.070189  -0.769447  -0.009672  -0.273700  -0.006240   0.030356
      4      -0.039327  -0.491329  -0.006921  -0.181046  -0.005438   0.021177
      5      -0.009681  -0.146296  -0.004121  -0.056675  -0.000911   0.006330
      6      -0.001714  -0.014971  -0.001861  -0.007069   0.000375  -0.003710
      7       0.007456   0.105252   0.003865   0.046341  -0.001911   0.004939
      8       0.002116   0.031707   0.001630   0.013803  -0.000218   0.003607
      9      -0.003032   0.003051  -0.013100   0.000451   0.045796  -0.012165
     10      -0.003422  -0.002910  -0.000954  -0.000907   0.017942   0.013796
     11       0.004861   0.000080   0.005652  -0.000168  -0.024585  -0.000671
     12      -0.032586  -0.027551  -0.004522  -0.006897   0.134411   0.133710
     13       0.063133   0.049095  -0.009241   0.011564  -0.183325  -0.231667
     14      -0.004279  -0.005225   0.001685  -0.000680   0.016181   0.034002
     15       0.096067  -0.015146   0.205974  -0.000867  -0.859180   0.056169
     16       0.014496  -0.004762   0.024411   0.000292  -0.105672   0.014517
     17      -0.036128   0.006574  -0.084458   0.001310   0.366725  -0.024642
     18      -0.033057   0.004492   0.002184  -0.003040  -0.003091   0.000013
     19      -0.020973   0.002585   0.001132  -0.002948  -0.001575   0.001079
     20      -0.047290   0.005182   0.003458  -0.003709  -0.004482   0.000110
     21       0.514364  -0.062455  -0.037877   0.045826   0.051990  -0.002626
     22       0.368489  -0.051442  -0.028489   0.040840   0.045140  -0.001965
     23       0.739409  -0.087881  -0.054276   0.068257   0.073517  -0.002152
     24       0.001226   0.003031  -0.000798  -0.007952  -0.000713   0.001302
     25      -0.079087   0.005928   0.007119   0.009064  -0.016727  -0.012777
     26      -0.006474   0.002064   0.001153  -0.003178  -0.000942   0.001420
     27       0.000803   0.001454   0.004722   0.001944   0.001723   0.035743
     28       0.002840  -0.005069   0.000797   0.003054   0.000166  -0.004878
     29      -0.000763  -0.002223  -0.005176  -0.000739  -0.001436  -0.032436
     30       0.003694  -0.035165  -0.054363  -0.003711  -0.015295  -0.377046
     31       0.001957   0.047522   0.075313   0.006814   0.019479   0.544197
     32       0.001618   0.038404   0.057762   0.002612   0.018105   0.441656
     33      -0.017628   0.013889  -0.037379  -0.025649  -0.010449  -0.193216
     34      -0.040601   0.027991  -0.084000  -0.052564  -0.021953  -0.467481
     35       0.003488  -0.005434   0.011752   0.006068   0.005446   0.068688
     36      -0.005507  -0.012248   0.001955   0.034023   0.000025  -0.000911
     37       0.006046   0.014750  -0.002480  -0.042746  -0.000025   0.001204
     38       0.000828   0.003599  -0.000306  -0.009040   0.000034   0.000357
     39       0.078281   0.204272  -0.033162  -0.603454   0.000370   0.019035
     40      -0.096210  -0.244905   0.040089   0.697172   0.000835  -0.021755
     41      -0.009224  -0.020777   0.001393   0.044854   0.000734  -0.000336
     42      -0.007320  -0.033365   0.004059   0.073988  -0.000612  -0.004577
     43       0.001709  -0.001833  -0.000963  -0.021552  -0.000071   0.000741
     44      -0.007856  -0.045659   0.003348   0.098790  -0.001053  -0.005661
     45       0.002523  -0.000201   0.033592  -0.001849   0.008054  -0.004338
     46      -0.001116   0.000207  -0.018228   0.001027  -0.003730   0.003242
     47       0.002072  -0.000093   0.042924  -0.002417   0.009540  -0.006649
     48      -0.032670   0.003042  -0.621296   0.036427  -0.149026   0.104147
     49       0.014769  -0.002312   0.217076  -0.011221   0.046509  -0.031562
     50      -0.036592   0.002018  -0.682914   0.038191  -0.155219   0.104666
     51       0.005478  -0.001032   0.112832  -0.007417   0.016985  -0.029569
     52       0.003874  -0.001328   0.072110  -0.004931   0.009329  -0.019509
     53      -0.001957   0.000286  -0.000348  -0.000009   0.009193  -0.000334
                 48         49         50         51         52         53    
      0      -0.002818   0.002679   0.000813   0.001461   0.010051  -0.000031
      1      -0.003196   0.002746  -0.003457  -0.012394  -0.058393  -0.000060
      2      -0.001453   0.000561  -0.000996  -0.003703  -0.017402   0.000018
      3       0.053607  -0.049708   0.002760   0.028496   0.093603   0.000815
      4       0.038350  -0.035809  -0.000262   0.011717   0.026767   0.000424
      5       0.012088  -0.009036  -0.000779   0.005573   0.007766  -0.000087
      6      -0.007544   0.006770  -0.015492  -0.052254  -0.255219  -0.000362
      7       0.014173  -0.010386   0.054856   0.182958   0.897359   0.000815
      8       0.003197  -0.004515   0.016340   0.054357   0.267077   0.000249
      9       0.039760  -0.009193  -0.000126  -0.000142  -0.000817  -0.000567
     10      -0.045650   0.011222  -0.000673  -0.000161   0.001272  -0.000300
     11       0.002113  -0.000488   0.000081  -0.000008  -0.000136   0.000350
     12      -0.452149   0.109651  -0.005174  -0.000717   0.012965  -0.001280
     13       0.774941  -0.187722   0.007199   0.000931  -0.021074   0.002669
     14      -0.113507   0.029275  -0.001619  -0.000315   0.002384  -0.000789
     15      -0.170740   0.037473   0.005809   0.002479   0.000202   0.010226
     16      -0.047022   0.009767   0.000503   0.000426   0.000791   0.002998
     17       0.082556  -0.018310  -0.002303  -0.000856  -0.000388  -0.003802
     18       0.001642   0.000624  -0.002442  -0.000946   0.000224   0.000036
     19       0.001080   0.002443   0.060715   0.012873  -0.006314   0.000294
     20       0.002371   0.001744   0.000995  -0.000148  -0.000117   0.000100
     21      -0.028694  -0.018237  -0.036946  -0.003674   0.004384  -0.001137
     22      -0.025599  -0.016295   0.002606   0.005398  -0.000131  -0.000518
     23      -0.039676  -0.029365  -0.051657  -0.004377   0.005572  -0.001663
     24       0.000312   0.002334   0.077613   0.015955  -0.007986   0.000350
     25       0.004128  -0.024943  -0.964264  -0.207214   0.100380  -0.004662
     26       0.001859   0.003685   0.038631   0.007738  -0.004028   0.000259
     27       0.011751   0.002275  -0.000470  -0.000435  -0.000570  -0.000762
     28       0.014775   0.066689  -0.001378  -0.001168   0.001328  -0.000203
     29      -0.006864   0.011993   0.000173   0.000159   0.000716   0.000398
     30      -0.046805   0.293015  -0.001672  -0.000959   0.012073   0.005121
     31       0.078973  -0.366073   0.000823   0.001111  -0.016296  -0.007676
     32       0.057168  -0.330616   0.001423   0.001339  -0.012725  -0.005919
     33      -0.141625  -0.330804   0.008773   0.008507  -0.002789   0.004056
     34      -0.311739  -0.690204   0.021205   0.017830  -0.005188   0.010569
     35       0.054380   0.140019  -0.004040  -0.004030   0.001789  -0.002148
     36      -0.000301  -0.001299  -0.007572   0.035296  -0.007023  -0.000366
     37       0.000162   0.002734   0.000984  -0.007719   0.002117   0.000074
     38       0.000111   0.001489  -0.011588   0.048854  -0.009187  -0.000483
     39       0.005110   0.038941   0.003907  -0.065345   0.020366   0.000867
     40      -0.005005  -0.043048  -0.007250   0.093000  -0.025524  -0.000815
     41      -0.000332  -0.002751  -0.007929   0.033122  -0.006246  -0.000485
     42      -0.001104  -0.013617   0.116414  -0.491884   0.092673   0.005135
     43       0.000546   0.000814  -0.007402   0.029776  -0.004894  -0.000269
     44      -0.001880  -0.021063   0.191705  -0.809434   0.153576   0.008095
     45       0.000170  -0.000512  -0.000380   0.000387  -0.000132   0.053395
     46      -0.000046   0.000591  -0.000277   0.000277  -0.000077   0.034540
     47       0.000483  -0.000901   0.000083  -0.000007  -0.000024   0.000641
     48      -0.004112   0.014956  -0.000324   0.000199   0.000394  -0.059872
     49       0.001912  -0.004457   0.000166   0.000450  -0.000212   0.049509
     50      -0.006629   0.014651  -0.000615  -0.000399   0.000465  -0.094386
     51      -0.003104  -0.004668   0.005883  -0.006200   0.001825  -0.784585
     52      -0.001865  -0.003380   0.004356  -0.004775   0.001394  -0.598161
     53       0.002187  -0.000494  -0.000582   0.000689  -0.000179   0.084416


-----------
IR SPECTRUM  
-----------

 Mode    freq (cm**-1)   T**2         TX         TY         TZ
-------------------------------------------------------------------
   6:        54.39    0.703281  (  0.805266   0.149349  -0.180339)
   7:        61.33    2.641388  (  1.255807  -0.890400  -0.521080)
   8:        77.51    0.387764  (  0.018991   0.414914  -0.463950)
   9:       105.16    3.311949  ( -1.337101   0.309300   1.195175)
  10:       120.55    0.041977  (  0.128600  -0.098929  -0.125108)
  11:       150.98    2.403951  (  1.506323  -0.366438  -0.025783)
  12:       182.64   35.672055  ( -1.361525   4.141017   4.082926)
  13:       194.73   51.041790  ( -4.820669   4.742787   2.304106)
  14:       212.39   28.410051  (  5.031517  -1.141542  -1.338196)
  15:       227.16    9.982589  ( -2.723765  -1.569782  -0.315404)
  16:       236.64   26.014385  ( -3.559539   3.159187  -1.834013)
  17:       240.19   25.743106  (  0.361004  -2.305906   4.505061)
  18:       250.28   16.536945  ( -3.684409  -1.632475  -0.545070)
  19:       285.99  102.002328  (  8.637881   4.886288   1.874440)
  20:       290.38   52.999763  (  5.914293   0.737604  -4.180531)
  21:       297.81   65.737162  (  3.361684  -0.521082  -7.359668)
  22:       398.64   25.135894  ( -2.040234  -1.765460  -4.225694)
  23:       413.33   95.330994  ( -9.229369   2.916895  -1.281194)
  24:       454.45   28.640510  ( -4.203286  -3.230298   0.733531)
  25:       470.69   45.023448  (  2.706938  -1.104376   6.039560)
  26:       487.45   38.590337  (  1.121139  -5.170917   3.254996)
  27:       553.98  194.963171  (  4.262460  12.229013   5.219756)
  28:       572.23   85.971807  (  8.869762  -2.447783  -1.143454)
  29:       642.77  198.147574  (  5.797216  -2.898283  12.495592)
  30:       701.01   19.260684  (  1.711943   3.472710   2.066451)
  31:       742.18  228.346690  (  8.932799   6.105459  10.548704)
  32:       799.70  186.748803  ( -3.924983  -4.609762  12.251261)
  33:       816.02  113.623530  (-10.028227   2.563680   2.546711)
  34:       877.73   21.397127  ( -2.822647   0.789605   3.578591)
  35:      1004.85   73.082765  ( -5.128607  -0.649952   6.808650)
  36:      1649.18  118.904713  (  5.746737   0.557433  -9.250351)
  37:      1657.10   72.447205  ( -2.875578  -7.770953   1.946931)
  38:      1670.49   62.064186  ( -6.178021   4.278453  -2.364546)
  39:      1684.64   55.294638  ( -1.190788  -7.059382   2.010420)
  40:      1695.87   16.235948  ( -3.385425   1.053003   1.914687)
  41:      1712.02   50.285976  ( -4.405035  -1.378110   5.383535)
  42:      3199.71  782.925220  ( 17.435786  13.616435  17.132171)
  43:      3420.18  711.723837  (-15.000702 -20.991014  -6.788235)
  44:      3475.79  571.668730  (-18.779178   2.420913 -14.599671)
  45:      3522.23  562.513367  (-21.824594   9.284271   0.052870)
  46:      3586.16  494.401453  (-19.732484  -2.818817   9.853163)
  47:      3677.11  143.789604  ( -1.991957  -2.115174  11.633905)
  48:      3708.87  314.649487  (-16.061942   7.483348   0.814255)
  49:      3746.12  457.242276  (  3.239755 -20.922300  -3.000605)
  50:      3877.44   63.881051  (  0.508556  -7.961099  -0.493279)
  51:      3879.69   76.392903  ( -6.576849   3.191800  -4.790655)
  52:      3880.55   93.279637  (  3.158322   8.303326   3.789382)
  53:      3889.04   78.150269  ( -8.078433  -2.854033  -2.178000)

The first frequency considered to be a vibration is 6
The total number of vibrations considered is 48


--------------------------
THERMOCHEMISTRY AT 298.15K
--------------------------

Temperature         ... 298.15 K
Pressure            ... 1.00 atm
Total Mass          ... 108.09 AMU

Throughout the following assumptions are being made:
  (1) The electronic state is orbitally nondegenerate
  (2) There are no thermally accessible electronically excited states
  (3) Hindered rotations indicated by low frequency modes are not
      treated as such but are treated as vibrations and this may
      cause some error
  (4) All equations used are the standard statistical mechanics
      equations for an ideal gas
  (5) All vibrations are strictly harmonic

freq.      54.39  E(vib)   ...       0.52 
freq.      61.33  E(vib)   ...       0.51 
freq.      77.51  E(vib)   ...       0.49 
freq.     105.16  E(vib)   ...       0.45 
freq.     120.55  E(vib)   ...       0.44 
freq.     150.98  E(vib)   ...       0.40 
freq.     182.64  E(vib)   ...       0.37 
freq.     194.73  E(vib)   ...       0.36 
freq.     212.39  E(vib)   ...       0.34 
freq.     227.16  E(vib)   ...       0.33 
freq.     236.64  E(vib)   ...       0.32 
freq.     240.19  E(vib)   ...       0.31 
freq.     250.28  E(vib)   ...       0.31 
freq.     285.99  E(vib)   ...       0.27 
freq.     290.38  E(vib)   ...       0.27 
freq.     297.81  E(vib)   ...       0.27 
freq.     398.64  E(vib)   ...       0.19 
freq.     413.33  E(vib)   ...       0.19 
freq.     454.45  E(vib)   ...       0.16 
freq.     470.69  E(vib)   ...       0.15 
freq.     487.45  E(vib)   ...       0.15 
freq.     553.98  E(vib)   ...       0.12 
freq.     572.23  E(vib)   ...       0.11 
freq.     642.77  E(vib)   ...       0.09 
freq.     701.01  E(vib)   ...       0.07 
freq.     742.18  E(vib)   ...       0.06 
freq.     799.70  E(vib)   ...       0.05 
freq.     816.02  E(vib)   ...       0.05 
freq.     877.73  E(vib)   ...       0.04 
freq.    1004.85  E(vib)   ...       0.02 
freq.    1649.18  E(vib)   ...       0.00 
freq.    1657.10  E(vib)   ...       0.00 
freq.    1670.49  E(vib)   ...       0.00 
freq.    1684.64  E(vib)   ...       0.00 
freq.    1695.87  E(vib)   ...       0.00 
freq.    1712.02  E(vib)   ...       0.00 
freq.    3199.71  E(vib)   ...       0.00 
freq.    3420.18  E(vib)   ...       0.00 
freq.    3475.79  E(vib)   ...       0.00 
freq.    3522.23  E(vib)   ...       0.00 
freq.    3586.16  E(vib)   ...       0.00 
freq.    3677.11  E(vib)   ...       0.00 
freq.    3708.87  E(vib)   ...       0.00 
freq.    3746.12  E(vib)   ...       0.00 
freq.    3877.44  E(vib)   ...       0.00 
freq.    3879.69  E(vib)   ...       0.00 
freq.    3880.55  E(vib)   ...       0.00 
freq.    3889.04  E(vib)   ...       0.00 

------------
INNER ENERGY
------------

The inner energy is: U= E(el) + E(ZPE) + E(vib) + E(rot) + E(trans)
    E(el)   - is the total energy from the electronic structure calculation
              = E(kin-el) + E(nuc-el) + E(el-el) + E(nuc-nuc)
    E(ZPE)  - the the zero temperature vibrational energy from the frequency calculation
    E(vib)  - the the finite temperature correction to E(ZPE) due to population
              of excited vibrational states
    E(rot)  - is the rotational thermal energy
    E(trans)- is the translational thermal energy

Summary of contributions to the inner energy U:
Electronic energy                ...   -458.56502457 Eh
Zero point energy                ...      0.15002956 Eh      94.14 kcal/mol
Thermal vibrational correction   ...      0.01180111 Eh       7.41 kcal/mol
Thermal rotational correction    ...      0.00141627 Eh       0.89 kcal/mol
Thermal translational correction ...      0.00141627 Eh       0.89 kcal/mol
-----------------------------------------------------------------------
Total thermal energy                   -458.40036135 Eh


Summary of corrections to the electronic energy:
(perhaps to be used in another calculation)
Total thermal correction                  0.01463366 Eh       9.18 kcal/mol
Non-thermal (ZPE) correction              0.15002956 Eh      94.14 kcal/mol
-----------------------------------------------------------------------
Total correction                          0.16466322 Eh     103.33 kcal/mol


--------
ENTHALPY
--------

The enthalpy is H = U + kB*T
                kB is Boltzmann's constant
Total free energy                 ...   -458.40036135 Eh 
Thermal Enthalpy correction       ...      0.00094421 Eh       0.59 kcal/mol
-----------------------------------------------------------------------
Total Enthalpy                    ...   -458.39941714 Eh


Note: Only C1 symmetry has been detected, increase convergence thresholds 
      if your molecule has a higher symmetry. Symmetry factor of 1.0 is   
      used for the rotational entropy correction. 
 

Note: Rotational entropy computed according to Herzberg 
Infrared and Raman Spectra, Chapter V,1, Van Nostrand Reinhold, 1945 
Point Group:  C1, Symmetry Number:   1  
Rotational constants in cm-1:     0.075288     0.038776     0.036953 

Vibrational entropy computed according to the QRRHO of S. Grimme
Chem.Eur.J. 2012 18 9955


-------
ENTROPY
-------

The entropy contributions are T*S = T*(S(el)+S(vib)+S(rot)+S(trans))
     S(el)   - electronic entropy
     S(vib)  - vibrational entropy
     S(rot)  - rotational entropy
     S(trans)- translational entropy
The entropies will be listed as mutliplied by the temperature to get
units of energy

Electronic entropy                ...      0.00000000 Eh      0.00 kcal/mol
Vibrational entropy               ...      0.02091310 Eh     13.12 kcal/mol
Rotational entropy                ...      0.01382312 Eh      8.67 kcal/mol
Translational entropy             ...      0.01898142 Eh     11.91 kcal/mol
-----------------------------------------------------------------------
Final entropy term                ...      0.05371764 Eh     33.71 kcal/mol

In case the symmetry of your molecule has not been determined correctly
or in case you have a reason to use a different symmetry number we print 
out the resulting rotational entropy values for sn=1,12 :
 --------------------------------------------------------
|  sn= 1 | S(rot)=       0.01382312 Eh      8.67 kcal/mol|
|  sn= 2 | S(rot)=       0.01316866 Eh      8.26 kcal/mol|
|  sn= 3 | S(rot)=       0.01278583 Eh      8.02 kcal/mol|
|  sn= 4 | S(rot)=       0.01251421 Eh      7.85 kcal/mol|
|  sn= 5 | S(rot)=       0.01230352 Eh      7.72 kcal/mol|
|  sn= 6 | S(rot)=       0.01213138 Eh      7.61 kcal/mol|
|  sn= 7 | S(rot)=       0.01198583 Eh      7.52 kcal/mol|
|  sn= 8 | S(rot)=       0.01185975 Eh      7.44 kcal/mol|
|  sn= 9 | S(rot)=       0.01174854 Eh      7.37 kcal/mol|
|  sn=10 | S(rot)=       0.01164906 Eh      7.31 kcal/mol|
|  sn=11 | S(rot)=       0.01155907 Eh      7.25 kcal/mol|
|  sn=12 | S(rot)=       0.01147692 Eh      7.20 kcal/mol|
 --------------------------------------------------------


-------------------
GIBBS FREE ENERGY
-------------------

The Gibbs free energy is G = H - T*S

Total enthalpy                    ...   -458.39941714 Eh 
Total entropy correction          ...     -0.05371764 Eh    -33.71 kcal/mol
-----------------------------------------------------------------------
Final Gibbs free energy         ...   -458.45313478 Eh

For completeness - the Gibbs free energy minus the electronic energy
G-E(el)                           ...      0.11188979 Eh     70.21 kcal/mol


Total Time for Numerical Frequencies  :     13563.512 sec

Timings for individual modules:

Sum of individual times         ...      791.362 sec (=  13.189 min)
GTO integral calculation        ...        6.012 sec (=   0.100 min)   0.8 %
SCF iterations                  ...       47.340 sec (=   0.789 min)   6.0 %
MP2 module                      ...      736.873 sec (=  12.281 min)  93.1 %
Geometry relaxation             ...        1.136 sec (=   0.019 min)   0.1 %
                             ****ORCA TERMINATED NORMALLY****
TOTAL RUN TIME: 0 days 3 hours 57 minutes 9 seconds 898 msec
