
                                 *****************
                                 * O   R   C   A *
                                 *****************

           --- An Ab Initio, DFT and Semiempirical electronic structure package ---

                  #######################################################
                  #                        -***-                        #
                  #          Department of theory and spectroscopy      #
                  #               Directorship: Frank Neese             #
                  #        Max Planck Institute fuer Kohlenforschung    #
                  #                Kaiser Wilhelm Platz 1               #
                  #                 D-45470 Muelheim/Ruhr               #
                  #                      Germany                        #
                  #                                                     #
                  #                  All rights reserved                #
                  #                        -***-                        #
                  #######################################################


                         Program Version 4.2.0 -  RELEASE  -


 With contributions from (in alphabetic order):
   Daniel Aravena         : Magnetic Suceptibility
   Michael Atanasov       : Ab Initio Ligand Field Theory (pilot matlab implementation)
   Alexander A. Auer      : GIAO ZORA, VPT2
   Ute Becker             : Parallelization
   Giovanni Bistoni       : ED, misc. LED, open-shell LED, HFLED
   Martin Brehm           : Molecular dynamics
   Dmytro Bykov           : SCF Hessian
   Vijay G. Chilkuri      : MRCI spin determinant printing, contributions to CSF-ICE
   Dipayan Datta          : RHF DLPNO-CCSD density
   Achintya Kumar Dutta   : EOM-CC, STEOM-CC
   Dmitry Ganyushin       : Spin-Orbit,Spin-Spin,Magnetic field MRCI
   Miquel Garcia          : C-PCM Hessian, Gaussian charge scheme
   Yang Guo               : DLPNO-NEVPT2, CIM, IAO-localization
   Andreas Hansen         : Spin unrestricted coupled pair/coupled cluster methods
   Benjamin Helmich-Paris : CASSCF linear response (MC-RPA)
   Lee Huntington         : MR-EOM, pCC
   Robert Izsak           : Overlap fitted RIJCOSX, COSX-SCS-MP3, EOM
   Christian Kollmar      : KDIIS, OOCD, Brueckner-CCSD(T), CCSD density
   Simone Kossmann        : Meta GGA functionals, TD-DFT gradient, OOMP2, MP2 Hessian
   Martin Krupicka        : AUTO-CI
   Lucas Lang             : DCDCAS
   Dagmar Lenk            : GEPOL surface, SMD
   Dimitrios Liakos       : Extrapolation schemes; Compound Job, initial MDCI parallelization
   Dimitrios Manganas     : Further ROCIS development; embedding schemes
   Dimitrios Pantazis     : SARC Basis sets
   Taras Petrenko         : DFT Hessian,TD-DFT gradient, ASA, ECA, R-Raman, ABS, FL, XAS/XES, NRVS
   Peter Pinski           : DLPNO-MP2, DLPNO-MP2 Gradient
   Christoph Reimann      : Effective Core Potentials
   Marius Retegan         : Local ZFS, SOC
   Christoph Riplinger    : Optimizer, TS searches, QM/MM, DLPNO-CCSD(T), (RO)-DLPNO pert. Triples
   Tobias Risthaus        : Range-separated hybrids, TD-DFT gradient, RPA, STAB
   Michael Roemelt        : Original ROCIS implementation
   Masaaki Saitow         : Open-shell DLPNO-CCSD energy and density
   Barbara Sandhoefer     : DKH picture change effects
   Avijit Sen             : IP-ROCIS
   Kantharuban Sivalingam : CASSCF convergence, NEVPT2, FIC-MRCI
   Bernardo de Souza      : ESD, SOC TD-DFT
   Georgi Stoychev        : AutoAux, RI-MP2 NMR
   Willem Van den Heuvel  : Paramagnetic NMR
   Boris Wezisla          : Elementary symmetry handling
   Frank Wennmohs         : Technical directorship


 We gratefully acknowledge several colleagues who have allowed us to
 interface, adapt or use parts of their codes:
   Stefan Grimme, W. Hujo, H. Kruse,             : VdW corrections, initial TS optimization,
                  C. Bannwarth                     DFT functionals, gCP, sTDA/sTD-DF
   Ed Valeev, F. Pavosevic, A. Kumar             : LibInt (2-el integral package), F12 methods
   Garnet Chan, S. Sharma, J. Yang, R. Olivares  : DMRG
   Ulf Ekstrom                                   : XCFun DFT Library
   Mihaly Kallay                                 : mrcc  (arbitrary order and MRCC methods)
   Andreas Klamt, Michael Diedenhofen            : otool_cosmo (COSMO solvation model)
   Jiri Pittner, Ondrej Demel                    : Mk-CCSD
   Frank Weinhold                                : gennbo (NPA and NBO analysis)
   Christopher J. Cramer and Donald G. Truhlar   : smd solvation model
   Lars Goerigk                                  : TD-DFT with DH, B97 family of functionals
   V. Asgeirsson, H. Jonsson                     : NEB implementation
   FAccTs GmbH                                   : IRC, NEB, NEB-TS, Multilevel, MM, QM/MM, CI optimization
   S Lehtola, MJT Oliveira, MAL Marques          : LibXC Library


 Your calculation uses the libint2 library for the computation of 2-el integrals
 For citations please refer to: http://libint.valeyev.net

 Your ORCA version has been built with support for libXC version: 4.2.3
 For citations please refer to: https://tddft.org/programs/libxc/

 This ORCA versions uses:
   CBLAS   interface :  Fast vector & matrix operations
   LAPACKE interface :  Fast linear algebra routines
   SCALAPACK package :  Parallel linear algebra routines


Your calculation utilizes the atom-pairwise dispersion correction
with the Becke-Johnson damping scheme (D3BJ)
Cite in your paper:
S.Grimme, S.Ehrlich, L.Goerigk, J Comput Chem, (2011), 32, 1456–1465 
S.Grimme, J.Antony, S.Ehrlich and H.Krieg, J.Chem.Phys., 132, (2010), 154104 
   

----- Orbital basis set information -----
Your calculation utilizes the basis: aug-cc-pV(T+d)Z 
             Al - Ar: T.H. Dunning, Jr., K. A. Peterson and A. K. Wilson, J. Chem. Phys.
                      114, 9244 (2001)

----- AuxC basis set information -----
Your calculation utilizes the auxiliary basis: def2-TZVP/C
  H-La, Hf-Rn : A. Hellweg, C. Hattig, S. Hofener and W. Klopper, Theor. Chem. Acc. 117, 587 (2007).
        Ce-Lu : J. Chmela and M. E. Harding, Mol. Phys. (2018).

----- AuxJK basis set information -----
Your calculation utilizes the auxiliary basis: def2/JK
   H-Ba, Hf-Rn: F. Weigend, J. Comput. Chem. 29, 167 (2008).

================================================================================
                                        WARNINGS
                       Please study these warnings very carefully!
================================================================================


WARNING: The frozen-core approximation for MP2-gradient calculations is turned on by default.

WARNING: Geometry Optimization
  ===> : Switching off AutoStart
         For restart on a previous wavefunction, please use MOREAD

WARNING: The frozen-core approximation is turned on by default for 
         the MP2 part of double-hybrid DFT.

INFO   : the flag for use of LIBINT has been found!

================================================================================
                                       INPUT FILE
================================================================================
NAME = 09_H2O_6_prism.in
|  1> #
|  2> # 09_H2O_6_prism b2-plyp/aug-cc-pvt(+d)z
|  3> #
|  4> ! rijk ri-b2plyp d3bj aug-cc-pvt(+d)z def2/jk def2-tzvp/c grid4 nofinalgrid opt xyzfile numfreq
|  5> 
|  6> *xyz 0 1
|  7> O	-1.511782	-0.232325	1.434522
|  8> H	-0.6139	-0.631798	1.542476
|  9> H	-2.015087	-0.484249	2.21021
| 10> O	-1.744551	-0.350365	-1.322141
| 11> H	-1.89002	-0.475498	-0.368433
| 12> H	-2.508917	-0.726304	-1.761973
| 13> O	-0.568902	2.010658	-0.079448
| 14> H	-0.9578	1.52123	0.658817
| 15> H	-0.991476	1.598457	-0.84212
| 16> O	0.972064	-1.194842	1.413465
| 17> H	0.986177	-1.536208	0.500658
| 18> H	1.544338	-0.420911	1.334663
| 19> O	0.983916	-1.359847	-1.372465
| 20> H	0.077993	-1.073694	-1.552782
| 21> H	1.480193	-0.535792	-1.283351
| 22> O	2.003223	1.063257	-0.092296
| 23> H	1.144078	1.530799	-0.098089
| 24> H	2.67269	1.741694	-0.193152
| 25> *
| 26> 
| 27> %maxcore 5000
| 28> 
| 29> %pal
| 30> nprocs 24
| 31> end
| 32> 
| 33> 
| 34>                          ****END OF INPUT****
================================================================================

                       *****************************
                       * Geometry Optimization Run *
                       *****************************

Geometry optimization settings:
Update method            Update   .... BFGS
Choice of coordinates    CoordSys .... Z-matrix Internals
Initial Hessian          InHess   .... Almoef's Model

Convergence Tolerances:
Energy Change            TolE     ....  5.0000e-06 Eh
Max. Gradient            TolMAXG  ....  3.0000e-04 Eh/bohr
RMS Gradient             TolRMSG  ....  1.0000e-04 Eh/bohr
Max. Displacement        TolMAXD  ....  4.0000e-03 bohr
RMS Displacement         TolRMSD  ....  2.0000e-03 bohr
Strict Convergence                ....  False
------------------------------------------------------------------------------
                        ORCA OPTIMIZATION COORDINATE SETUP
------------------------------------------------------------------------------

The optimization will be done in new redundant internal coordinates
Making redundant internal coordinates   ...  (new redundants) done
Evaluating the initial hessian          ...  (Almloef) done
Evaluating the coordinates              ...  done
Calculating the B-matrix                .... done
Calculating the G-matrix                .... done
Diagonalizing the G-matrix              .... done
The first mode is                       ....  371
The number of degrees of freedom        ....   48

    -----------------------------------------------------------------
                    Redundant Internal Coordinates


    -----------------------------------------------------------------
         Definition                    Initial Value    Approx d2E/dq
    -----------------------------------------------------------------
      1. B(H   1,O   0)                  0.9886         0.468016   
      2. B(H   2,O   0)                  0.9584         0.523079   
      3. B(H   4,O   0)                  1.8582         0.019186   
      4. B(H   4,O   3)                  0.9728         0.496036   
      5. B(H   4,H   1)                  2.3031         0.000800   
      6. B(H   5,O   3)                  0.9587         0.522513   
      7. B(H   7,H   4)                  2.4313         0.000499   
      8. B(H   7,H   1)                  2.3526         0.000667   
      9. B(H   7,O   0)                  1.9959         0.011568   
     10. B(H   7,O   6)                  0.9674         0.506056   
     11. B(H   8,H   4)                  2.3093         0.000782   
     12. B(H   8,O   6)                  0.9644         0.511542   
     13. B(H   8,O   3)                  2.1437         0.006721   
     14. B(O   9,H   1)                  1.6879         0.035866   
     15. B(H  10,O   9)                  0.9747         0.492709   
     16. B(H  10,H   1)                  2.1127         0.001610   
     17. B(H  11,H   1)                  2.1785         0.001265   
     18. B(H  11,O   9)                  0.9658         0.509085   
     19. B(O  12,H  10)                  1.8814         0.017616   
     20. B(H  13,H  10)                  2.2925         0.000832   
     21. B(H  13,H   4)                  2.3735         0.000618   
     22. B(H  13,O   3)                  1.9744         0.012521   
     23. B(H  13,O  12)                  0.9670         0.506751   
     24. B(H  14,H  10)                  2.1042         0.001661   
     25. B(H  14,O  12)                  0.9661         0.508483   
     26. B(O  15,H  11)                  2.1094         0.007624   
     27. B(O  15,H  14)                  2.0613         0.009096   
     28. B(H  16,H   8)                  2.2625         0.000929   
     29. B(H  16,H   7)                  2.2340         0.001031   
     30. B(H  16,O   6)                  1.7790         0.025661   
     31. B(H  16,O  15)                  0.9781         0.486435   
     32. B(H  17,O  15)                  0.9585         0.522917   
     33. A(H   2,O   0,H   7)          133.7319         0.187530   
     34. A(H   2,O   0,H   4)          130.0927         0.199483   
     35. A(H   1,O   0,H   4)          103.7647         0.196736   
     36. A(H   1,O   0,H   7)           98.3581         0.185080   
     37. A(H   4,O   0,H   7)           78.1339         0.135627   
     38. A(H   1,O   0,H   2)          106.4011         0.316661   
     39. A(H   4,H   1,H  10)           92.2664         0.098514   
     40. A(O   0,H   1,H  10)          143.7987         0.138745   
     41. A(H  10,H   1,H  11)           40.8936         0.099554   
     42. A(H   7,H   1,O   9)          114.4518         0.111784   
     43. A(O   9,H   1,H  10)           26.8601         0.116813   
     44. A(H   4,H   1,H   7)           62.9514         0.096794   
     45. A(O   0,H   1,O   9)          168.4624         0.213125   
     46. A(O   0,H   1,H   7)           57.0737         0.129750   
     47. A(O   0,H   1,H  11)          148.2370         0.136099   
     48. A(H   4,H   1,O   9)          118.6751         0.112740   
     49. A(O   9,H   1,H  11)           25.0555         0.115334   
     50. A(H   4,H   1,H  11)          117.5949         0.098008   
     51. A(H   7,H   1,H  10)          108.4971         0.098131   
     52. A(O   0,H   1,H   4)           51.5943         0.131460   
     53. A(H   7,H   1,H  11)           91.1688         0.097645   
     54. A(H   4,O   3,H   8)           87.1308         0.175094   
     55. A(H   5,O   3,H  13)          122.5988         0.189286   
     56. A(H   4,O   3,H  13)          101.8549         0.188112   
     57. A(H   4,O   3,H   5)          106.2671         0.319621   
     58. A(H   8,O   3,H  13)           92.0018         0.126438   
     59. A(H   5,O   3,H   8)          137.6745         0.176114   
     60. A(O   0,H   4,H  13)          110.3870         0.108435   
     61. A(H   7,H   4,H   8)           36.8628         0.096263   
     62. A(O   3,H   4,H  13)           54.4967         0.129578   
     63. A(O   0,H   4,O   3)          154.6816         0.198163   
     64. A(H   7,H   4,H  13)           95.7328         0.095885   
     65. A(O   3,H   4,H   8)           67.9887         0.131802   
     66. A(O   0,H   4,H   1)           24.6410         0.109606   
     67. A(H   1,H   4,H   7)           59.5179         0.096300   
     68. A(H   8,H   4,H  13)           78.5433         0.096620   
     69. A(H   1,H   4,H  13)           86.4159         0.096659   
     70. A(O   0,H   4,H   8)           90.1314         0.109500   
     71. A(H   1,H   4,H   8)           90.8907         0.097079   
     72. A(O   0,H   4,H   7)           53.4534         0.107523   
     73. A(O   3,H   4,H   7)          104.5508         0.127674   
     74. A(H   1,H   4,O   3)          137.6694         0.132023   
     75. A(H   7,O   6,H   8)          102.1882         0.319557   
     76. A(H   8,O   6,H  16)          107.3567         0.206405   
     77. A(H   7,O   6,H  16)          104.9882         0.206119   
     78. A(O   0,H   7,H   1)           24.5682         0.106636   
     79. A(H   1,H   7,O   6)          133.7018         0.130478   
     80. A(O   0,H   7,O   6)          148.5058         0.186795   
     81. A(H   1,H   7,H  16)           89.6360         0.097255   
     82. A(O   0,H   7,H  16)          113.3648         0.108463   
     83. A(O   6,H   7,H  16)           50.2853         0.134775   
     84. A(H   4,H   7,H  16)          102.7743         0.096732   
     85. A(H   1,H   7,H   4)           57.5306         0.096006   
     86. A(O   0,H   7,H   4)           48.4127         0.105519   
     87. A(H   4,H   7,O   6)          104.3119         0.127850   
     88. A(O   3,H   8,O   6)          136.0167         0.175696   
     89. A(O   3,H   8,H  16)          112.2126         0.105810   
     90. A(O   6,H   8,H  16)           48.6350         0.133814   
     91. A(O   3,H   8,H   4)           24.8805         0.105168   
     92. A(H   4,H   8,H  16)          105.8401         0.097357   
     93. A(H   4,H   8,O   6)          113.0860         0.132101   
     94. A(H   1,O   9,H  11)          107.1996         0.215510   
     95. A(H  10,O   9,H  11)          101.2843         0.317917   
     96. A(H   1,O   9,H  10)          101.6553         0.214578   
     97. A(O  12,H  10,H  14)           27.3281         0.112848   
     98. A(H   1,H  10,H  14)          113.1019         0.100226   
     99. A(H   1,H  10,O   9)           51.4846         0.139327   
    100. A(O   9,H  10,H  14)          129.1181         0.139686   
    101. A(H  13,H  10,H  14)           40.3276         0.098668   
    102. A(O  12,H  10,H  13)           24.3306         0.109392   
    103. A(H   1,H  10,H  13)           93.1702         0.098599   
    104. A(O   9,H  10,H  13)          139.6853         0.132341   
    105. A(H   1,H  10,O  12)          116.7377         0.112679   
    106. A(O   9,H  10,O  12)          154.1020         0.195912   
    107. A(H   1,H  11,O   9)           47.7450         0.137004   
    108. A(H   1,H  11,O  15)          110.3754         0.107548   
    109. A(O   9,H  11,O  15)          138.4136         0.178108   
    110. A(H  13,O  12,H  14)          104.2434         0.319316   
    111. A(H  10,O  12,H  14)           89.2840         0.196678   
    112. A(H  10,O  12,H  13)          102.3870         0.196595   
    113. A(H   4,H  13,O  12)          139.3159         0.129774   
    114. A(O   3,H  13,O  12)          162.0699         0.188593   
    115. A(H   4,H  13,H  10)           86.1220         0.096728   
    116. A(O   3,H  13,H  10)          109.5712         0.107876   
    117. A(H  10,H  13,O  12)           53.2824         0.132618   
    118. A(O   3,H  13,H   4)           23.6483         0.106645   
    119. A(H  10,H  14,O  15)           86.4741         0.109534   
    120. A(O  12,H  14,O  15)          147.7081         0.181715   
    121. A(H  10,H  14,O  12)           63.3879         0.140049   
    122. A(H  11,O  15,H  14)           77.8701         0.124834   
    123. A(H  14,O  15,H  17)          131.7227         0.182304   
    124. A(H  14,O  15,H  16)           98.3087         0.180790   
    125. A(H  16,O  15,H  17)          105.9349         0.318643   
    126. A(H  11,O  15,H  17)          136.1515         0.178650   
    127. A(H  11,O  15,H  16)           98.5830         0.177194   
    128. A(H   7,H  16,H   8)           39.0568         0.097897   
    129. A(O   6,H  16,H   8)           24.0083         0.111765   
    130. A(H   8,H  16,O  15)          147.7059         0.133307   
    131. A(O   6,H  16,H   7)           24.7265         0.112310   
    132. A(H   7,H  16,O  15)          145.3191         0.134367   
    133. A(O   6,H  16,O  15)          167.0604         0.205076   
    134. D(O   9,H   1,O   0,H   4)     34.7170         0.390938   
    135. D(H   7,H   1,O   0,H   4)     79.7475         0.390938   
    136. D(H  10,H   1,O   0,H   7)    -75.8291         0.390938   
    137. D(O   9,H   1,O   0,H   7)    -45.0305         0.390938   
    138. D(H   4,H   1,O   0,H   2)    139.7559         0.390938   
    139. D(H  11,H   1,O   0,H   2)   -139.3059         0.390938   
    140. D(H   4,H   1,O   0,H   7)    -79.7475         0.390938   
    141. D(H  10,H   1,O   0,H   4)      3.9184         0.390938   
    142. D(O   9,H   1,O   0,H   2)    174.4729         0.390938   
    143. D(H  11,H   1,O   0,H   4)     80.9382         0.390938   
    144. D(H  11,H   1,O   0,H   7)      1.1907         0.390938   
    145. D(H   7,H   1,O   0,H   2)   -140.4966         0.390938   
    146. D(H  10,H   1,O   0,H   2)    143.6742         0.390938   
    147. D(H   8,H   4,H   1,H   7)     20.3389         0.001510   
    148. D(O   0,H   4,H   1,H   7)    -68.0341         0.001510   
    149. D(H  13,H   4,O   0,H   7)     81.7890         0.001789   
    150. D(O   0,H   4,H   1,H  10)   -177.6851         0.001510   
    151. D(H   8,H   4,O   3,H   5)   -139.1571         0.453874   
    152. D(H   7,H   4,O   3,H   5)   -143.9499         0.453874   
    153. D(H   1,H   4,O   0,H   2)   -125.8907         0.001789   
    154. D(H  13,H   4,O   0,H   2)   -139.9246         0.001789   
    155. D(H   1,H   4,O   3,H   8)    -65.2352         0.453874   
    156. D(H   7,H   4,H   1,O   0)     68.0341         0.001510   
    157. D(O   3,H   4,H   1,O   0)    145.7197         0.001510   
    158. D(H   1,H   4,O   0,H   7)     95.8229         0.001789   
    159. D(O   3,H   4,H   1,H  10)    -31.9654         0.001510   
    160. D(H   8,H   4,O   3,H  13)     91.4449         0.453874   
    161. D(O   3,H   4,O   0,H   1)    -62.4893         0.001789   
    162. D(H   7,H   4,O   3,H   8)     -4.7928         0.453874   
    163. D(O   3,H   4,O   0,H   2)    171.6200         0.001789   
    164. D(H   8,H   4,O   0,H   1)    -91.8501         0.001789   
    165. D(H   7,H   4,O   0,H   1)    -95.8229         0.001789   
    166. D(H  13,H   4,H   1,H  10)    -10.8498         0.001510   
    167. D(H   8,H   4,H   1,O   9)    -84.1669         0.001510   
    168. D(H   7,H   4,O   0,H   2)    138.2864         0.001789   
    169. D(H  13,H   4,O   0,H   1)    -14.0339         0.001789   
    170. D(H  13,H   4,O   3,H   5)    129.3980         0.453874   
    171. D(H   1,H   4,O   3,H  13)     26.2097         0.453874   
    172. D(H   7,H   4,H   1,O   9)   -104.5059         0.001510   
    173. D(H   8,H   4,H   1,H  10)    -89.3120         0.001510   
    174. D(H   7,H   4,H   1,H  11)    -76.0525         0.001510   
    175. D(H  13,H   4,H   1,H  11)     22.7486         0.001510   
    176. D(H   8,H   4,O   0,H   7)      3.9728         0.001789   
    177. D(H   7,H   4,H   1,H  10)   -109.6510         0.001510   
    178. D(H   8,H   4,H   1,O   0)     88.3731         0.001510   
    179. D(H  13,H   4,H   1,H   7)     98.8012         0.001510   
    180. D(H   8,H   4,H   1,H  11)    -55.7136         0.001510   
    181. D(H   8,H   4,O   0,H   2)    142.2592         0.001789   
    182. D(O   3,H   4,H   1,O   9)    -26.8203         0.001510   
    183. D(H   1,H   4,O   3,H   5)    155.6076         0.453874   
    184. D(O   0,H   4,H   1,H  11)   -144.0867         0.001510   
    185. D(H  13,H   4,H   1,O   9)     -5.7047         0.001510   
    186. D(O   0,H   4,H   1,O   9)   -172.5400         0.001510   
    187. D(O   3,H   4,O   0,H   7)     33.3335         0.001789   
    188. D(H  13,H   4,H   1,O   0)    166.8353         0.001510   
    189. D(O   0,H   4,O   3,H   5)   -171.0852         0.453874   
    190. D(H  13,H   4,O   3,H   8)    -91.4449         0.453874   
    191. D(O   3,H   4,H   1,H  11)      1.6331         0.001510   
    192. D(H   7,H   4,O   3,H  13)     86.6521         0.453874   
    193. D(O   3,H   4,H   1,H   7)     77.6856         0.001510   
    194. D(O   0,H   4,O   3,H   8)    -31.9280         0.453874   
    195. D(O   0,H   4,O   3,H  13)     59.5169         0.453874   
    196. D(O   6,H   7,O   0,H   1)     67.0798         0.001597   
    197. D(H  16,H   7,O   6,H   8)    111.9486         0.421007   
    198. D(H   4,H   7,O   6,H   8)     17.0878         0.421007   
    199. D(H   1,H   7,O   6,H  16)    -36.3649         0.421007   
    200. D(H  16,H   7,H   4,O   0)    110.0283         0.001504   
    201. D(H  16,H   7,H   4,H   8)    -63.3399         0.001504   
    202. D(H  16,H   7,H   4,H   1)     81.2578         0.001504   
    203. D(O   0,H   7,O   6,H  16)    -68.3506         0.421007   
    204. D(H  16,H   7,H   4,O   3)    -55.9208         0.001504   
    205. D(O   0,H   7,O   6,H   8)     43.5981         0.421007   
    206. D(H   1,H   7,H   4,H  13)    -82.4150         0.001504   
    207. D(H   4,H   7,O   6,H  16)    -94.8609         0.421007   
    208. D(H   1,H   7,O   6,H   8)     75.5837         0.421007   
    209. D(O   0,H   7,H   4,H   8)   -173.3681         0.001504   
    210. D(O   0,H   7,H   4,H  13)   -111.1855         0.001504   
    211. D(O   0,H   7,H   4,H   1)    -28.7705         0.001504   
    212. D(O   0,H   7,H   4,O   3)   -165.9490         0.001504   
    213. D(O   6,H   7,H   4,H  13)     50.6489         0.001504   
    214. D(O   6,H   7,H   4,O   0)    161.8343         0.001504   
    215. D(O   6,H   7,H   4,H   1)    133.0638         0.001504   
    216. D(H  16,H   7,H   1,H  11)     15.2163         0.001506   
    217. D(H  16,H   7,H   1,H  10)    -22.5565         0.001506   
    218. D(H  16,H   7,H   1,O   9)      5.6467         0.001506   
    219. D(H   4,H   7,H   1,H  10)     82.8775         0.001506   
    220. D(H   4,H   7,H   1,O   0)    -59.9766         0.001506   
    221. D(O   0,H   7,H   1,H   4)     59.9766         0.001506   
    222. D(H  16,H   7,H   1,H   4)   -105.4340         0.001506   
    223. D(O   6,H   7,H   4,O   3)     -4.1147         0.001504   
    224. D(O   0,H   7,H   1,H  11)   -179.3731         0.001506   
    225. D(H   4,H   7,H   1,O   9)    111.0807         0.001506   
    226. D(O   0,H   7,H   1,H  10)    142.8541         0.001506   
    227. D(O   6,H   7,H   4,H   8)    -11.5338         0.001504   
    228. D(O   0,H   7,H   1,O   9)    171.0573         0.001506   
    229. D(H  16,H   7,H   1,O   0)   -165.4106         0.001506   
    230. D(O   6,H   7,H   1,H   4)    -78.2977         0.001506   
    231. D(O   6,H   7,H   1,H  11)     42.3526         0.001506   
    232. D(H   1,H   7,H   4,O   3)   -137.1786         0.001504   
    233. D(H   1,H   7,H   4,O   0)     28.7705         0.001504   
    234. D(H   4,H   7,H   1,H  11)    120.6503         0.001506   
    235. D(H   1,H   7,H   4,H   8)   -144.5976         0.001504   
    236. D(O   6,H   7,H   1,O   9)     32.7830         0.001506   
    237. D(O   6,H   7,H   1,O   0)   -138.2743         0.001506   
    238. D(H  16,H   7,O   0,H   4)    -86.4826         0.001597   
    239. D(H  16,H   7,H   4,H  13)     -1.1572         0.001504   
    240. D(O   6,H   7,H   1,H  10)      4.5798         0.001506   
    241. D(H  16,H   7,O   0,H   2)    138.3043         0.001597   
    242. D(O   6,H   7,O   0,H   4)    -35.3282         0.001597   
    243. D(H   4,H   7,O   0,H   2)   -135.2132         0.001597   
    244. D(H   1,H   7,O   0,H   4)   -102.4079         0.001597   
    245. D(H   1,H   7,O   0,H   2)    122.3789         0.001597   
    246. D(H  16,H   7,O   0,H   1)     15.9254         0.001597   
    247. D(H   4,H   7,O   0,H   1)    102.4079         0.001597   
    248. D(O   6,H   7,O   0,H   2)   -170.5413         0.001597   
    249. D(O   6,H   8,H   4,O   0)      6.8718         0.001508   
    250. D(O   6,H   8,H   4,H   1)    -17.7587         0.001508   
    251. D(O   6,H   8,H   4,O   3)   -160.0569         0.001508   
    252. D(H  16,H   8,O   3,H  13)    -22.1284         0.001531   
    253. D(H  16,H   8,O   3,H   5)   -169.1613         0.001531   
    254. D(O   6,H   8,H   4,H  13)   -103.9202         0.001508   
    255. D(H  16,H   8,O   3,H   4)     79.6464         0.001531   
    256. D(H   4,H   8,O   3,H  13)   -101.7748         0.001531   
    257. D(H   4,H   8,O   3,H   5)    111.1922         0.001531   
    258. D(O   6,H   8,O   3,H  13)    -74.9137         0.001531   
    259. D(O   6,H   8,O   3,H   5)    138.0534         0.001531   
    260. D(O   6,H   8,O   3,H   4)     26.8611         0.001531   
    261. D(H   4,H   8,O   6,H   7)    -19.0169         0.401285   
    262. D(H  16,H   8,H   4,H   1)     33.5003         0.001508   
    263. D(H  16,H   8,H   4,H  13)    -52.6613         0.001508   
    264. D(H   4,H   8,O   6,H  16)     91.1475         0.401285   
    265. D(O   3,H   8,O   6,H   7)    -30.9427         0.401285   
    266. D(H  16,H   8,H   4,O   0)     58.1308         0.001508   
    267. D(O   3,H   8,O   6,H  16)     79.2216         0.401285   
    268. D(H  16,H   8,H   4,O   3)   -108.7979         0.001508   
    269. D(O   3,H   8,H   4,H   7)    172.2523         0.001508   
    270. D(H  16,H   8,H   4,H   7)     63.4544         0.001508   
    271. D(O   3,H   8,H   4,H  13)     56.1366         0.001508   
    272. D(O   3,H   8,H   4,H   1)    142.2982         0.001508   
    273. D(H  16,H   8,O   6,H   7)   -110.1644         0.401285   
    274. D(O   3,H   8,H   4,O   0)    166.9287         0.001508   
    275. D(O   6,H   8,H   4,H   7)     12.1955         0.001508   
    276. D(H  11,O   9,H   1,H   7)     23.1085         0.002499   
    277. D(H  11,O   9,H   1,H   4)     94.4037         0.002499   
    278. D(H  11,O   9,H   1,H  10)    105.8430         0.002499   
    279. D(H  11,O   9,H   1,O   0)     63.8275         0.002499   
    280. D(H  10,O   9,H   1,H   7)    -82.7345         0.002499   
    281. D(H  10,O   9,H   1,H   4)    -11.4393         0.002499   
    282. D(H  10,O   9,H   1,H  11)   -105.8430         0.002499   
    283. D(H  10,O   9,H   1,O   0)    -42.0155         0.002499   
    284. D(H  14,H  10,O   9,H   1)     89.9507         0.392975   
    285. D(H  13,H  10,O   9,H   1)     34.0313         0.392975   
    286. D(H  13,H  10,O   9,H  11)    -76.3972         0.392975   
    287. D(O  12,H  10,O   9,H   1)     71.1741         0.392975   
    288. D(H   1,H  10,O   9,H  11)   -110.4285         0.392975   
    289. D(H  14,H  10,H   1,H   7)    -14.7013         0.001536   
    290. D(H  14,H  10,H   1,H   4)     47.4815         0.001536   
    291. D(H  14,H  10,H   1,O   9)   -122.4898         0.001536   
    292. D(H  14,H  10,H   1,O   0)     44.4095         0.001536   
    293. D(H  13,H  10,H   1,H   7)    -50.9492         0.001536   
    294. D(H  13,H  10,H   1,H   4)     11.2335         0.001536   
    295. D(H  13,H  10,H   1,H  11)   -120.2517         0.001536   
    296. D(H  13,H  10,H   1,O   9)   -158.7377         0.001536   
    297. D(H  13,H  10,H   1,O   0)      8.1615         0.001536   
    298. D(O  12,H  10,H   1,H   7)    -44.6371         0.001536   
    299. D(H  14,H  10,H   1,H  11)    -84.0037         0.001536   
    300. D(O  12,H  10,H   1,H   4)     17.5457         0.001536   
    301. D(O  12,H  10,H   1,H  11)   -113.9396         0.001536   
    302. D(O  12,H  10,H   1,O   9)   -152.4256         0.001536   
    303. D(O  12,H  10,O   9,H  11)    -39.2544         0.392975   
    304. D(O  12,H  10,H   1,O   0)     14.4736         0.001536   
    305. D(O   9,H  10,H   1,H   7)    107.7885         0.001536   
    306. D(O   9,H  10,H   1,H   4)    169.9713         0.001536   
    307. D(H  14,H  10,O   9,H  11)    -20.4778         0.392975   
    308. D(O   9,H  10,H   1,H  11)     38.4860         0.001536   
    309. D(O   9,H  10,H   1,O   0)    166.8992         0.001536   
    310. D(O  15,H  11,O   9,H   1)    -71.6360         0.363112   
    311. D(H   1,H  11,O   9,H  10)    106.1060         0.363112   
    312. D(O  15,H  11,H   1,H   7)    -21.2837         0.001520   
    313. D(O  15,H  11,H   1,H   4)     38.5469         0.001520   
    314. D(O  15,H  11,H   1,H  10)     96.1782         0.001520   
    315. D(O  15,H  11,H   1,O   9)    137.7790         0.001520   
    316. D(O  15,H  11,H   1,O   0)    -22.2833         0.001520   
    317. D(O   9,H  11,H   1,H   7)   -159.0627         0.001520   
    318. D(O   9,H  11,H   1,H   4)    -99.2321         0.001520   
    319. D(O  15,H  11,O   9,H  10)     34.4700         0.363112   
    320. D(O   9,H  11,H   1,H  10)    -41.6008         0.001520   
    321. D(O   9,H  11,H   1,O   0)   -160.0623         0.001520   
    322. D(H  14,O  12,H  10,H  13)    104.4291         0.001713   
    323. D(H  14,O  12,H  10,H   1)     88.9762         0.001713   
    324. D(H  14,O  12,H  10,O   9)     32.9544         0.001713   
    325. D(H  13,O  12,H  10,H  14)   -104.4291         0.001713   
    326. D(H  13,O  12,H  10,H   1)    -15.4529         0.001713   
    327. D(H  13,O  12,H  10,O   9)    -71.4747         0.001713   
    328. D(H  10,H  13,O  12,H  14)    -92.4388         0.391647   
    329. D(H   4,H  13,O  12,H  14)    -88.0369         0.391647   
    330. D(O   3,H  13,O  12,H  10)     18.6224         0.391647   
    331. D(O   3,H  13,O  12,H  14)    -73.8164         0.391647   
    332. D(H   4,H  13,H  10,H  14)   -133.7315         0.001509   
    333. D(H   4,H  13,H  10,O  12)   -177.1255         0.001509   
    334. D(H   4,H  13,H  10,H   1)    -10.9130         0.001509   
    335. D(H   4,H  13,H  10,O   9)    -36.9251         0.001509   
    336. D(O   3,H  13,H  10,O  12)   -174.0111         0.001509   
    337. D(O   3,H  13,H  10,H   1)     -7.7986         0.001509   
    338. D(O   3,H  13,H  10,O   9)    -33.8106         0.001509   
    339. D(O  12,H  13,H  10,H   1)    166.2125         0.001509   
    340. D(O  12,H  13,H  10,O   9)    140.2004         0.001509   
    341. D(H  10,H  13,H   4,H   8)    101.6434         0.001505   
    342. D(H  10,H  13,H   4,H   7)     68.8670         0.001505   
    343. D(H  10,H  13,H   4,H   1)     10.0053         0.001505   
    344. D(H  10,H  13,H   4,O   0)     15.8195         0.001505   
    345. D(H  10,H  13,H   4,O   3)    172.6679         0.001505   
    346. D(O   3,H  13,H   4,H   8)    -71.0245         0.001505   
    347. D(O   3,H  13,H   4,H   7)   -103.8009         0.001505   
    348. D(O   3,H  13,H   4,H   1)   -162.6626         0.001505   
    349. D(O   3,H  13,H   4,O   0)   -156.8484         0.001505   
    350. D(O  12,H  13,H   4,H   8)     98.1081         0.001505   
    351. D(O  12,H  13,H  10,H  14)     43.3941         0.001509   
    352. D(O  12,H  13,H   4,H   7)     65.3316         0.001505   
    353. D(O  12,H  13,H   4,H   1)      6.4699         0.001505   
    354. D(O  12,H  13,H   4,O   0)     12.2841         0.001505   
    355. D(O   3,H  13,H  10,H  14)   -130.6170         0.001509   
    356. D(O  12,H  13,H   4,O   3)    169.1325         0.001505   
    357. D(H  10,H  13,O   3,H   8)     79.7208         0.001607   
    358. D(H  10,H  13,O   3,H   5)   -126.0594         0.001607   
    359. D(H  10,H  13,O   3,H   4)     -7.7665         0.001607   
    360. D(H   4,H  13,O   3,H   8)     87.4873         0.001607   
    361. D(H   4,H  13,O   3,H   5)   -118.2929         0.001607   
    362. D(O  12,H  13,O   3,H   8)     63.9573         0.001607   
    363. D(H   4,H  13,O  12,H  10)      4.4019         0.391647   
    364. D(O  12,H  13,O   3,H   5)   -141.8229         0.001607   
    365. D(O  12,H  13,O   3,H   4)    -23.5300         0.001607   
    366. D(O  15,H  14,O  12,H  10)    -22.8456         0.362004   
    367. D(O  15,H  14,O  12,H  13)     79.7555         0.362004   
    368. D(H  10,H  14,O  12,H  13)    102.6011         0.362004   
    369. D(O  15,H  14,H  10,H  13)    129.9413         0.001532   
    370. D(O  15,H  14,H  10,O  12)    168.0060         0.001532   
    371. D(O  15,H  14,H  10,H   1)     64.1215         0.001532   
    372. D(O  15,H  14,H  10,O   9)      5.8384         0.001532   
    373. D(O  12,H  14,H  10,H  13)    -38.0647         0.001532   
    374. D(O  12,H  14,H  10,H   1)   -103.8845         0.001532   
    375. D(O  12,H  14,H  10,O   9)   -162.1676         0.001532   
    376. D(H  11,O  15,H  14,H  10)      5.0305         0.001552   
    377. D(H  11,O  15,H  14,O  12)     25.3818         0.001552   
    378. D(H  17,O  15,H  14,H  10)    147.8424         0.001552   
    379. D(H  17,O  15,H  14,O  12)    168.1937         0.001552   
    380. D(H  16,O  15,H  14,H  10)    -92.0279         0.001552   
    381. D(H  16,O  15,H  14,O  12)    -71.6766         0.001552   
    382. D(H  14,O  15,H  11,H   1)    -77.5111         0.001537   
    383. D(H  14,O  15,H  11,O   9)    -28.9769         0.001537   
    384. D(H  17,O  15,H  11,H   1)    143.1225         0.001537   
    385. D(H  17,O  15,H  11,O   9)   -168.3433         0.001537   
    386. D(H  16,O  15,H  11,H   1)     19.2102         0.001537   
    387. D(H  16,O  15,H  11,O   9)     67.7444         0.001537   
    388. D(O  15,H  16,O   6,H   7)     47.7996         0.001929   
    389. D(H   8,H  16,O  15,H  14)     -1.5238         0.380237   
    390. D(H   8,H  16,O  15,H  11)    -80.4121         0.380237   
    391. D(H   8,H  16,O  15,H  17)    136.3065         0.380237   
    392. D(H   7,H  16,O  15,H  11)     -5.9413         0.380237   
    393. D(H   7,H  16,O  15,H  17)   -149.2228         0.380237   
    394. D(O   6,H  16,O  15,H  14)     39.9513         0.380237   
    395. D(O   6,H  16,O  15,H  17)    177.7815         0.380237   
    396. D(H   7,H  16,H   8,H   4)    -67.9603         0.001510   
    397. D(H   7,H  16,H   8,O   3)    -93.4414         0.001510   
    398. D(H   7,H  16,H   8,O   6)     39.0921         0.001510   
    399. D(O   6,H  16,H   8,H   4)   -107.0524         0.001510   
    400. D(O   6,H  16,H   8,O   3)   -132.5335         0.001510   
    401. D(O  15,H  16,H   8,H   4)     51.5708         0.001510   
    402. D(O  15,H  16,H   8,O   3)     26.0898         0.001510   
    403. D(O  15,H  16,H   8,O   6)    158.6233         0.001510   
    404. D(H   8,H  16,H   7,H   4)     60.2840         0.001513   
    405. D(H   8,H  16,H   7,H   1)    116.7848         0.001513   
    406. D(H   8,H  16,H   7,O   0)    110.2339         0.001513   
    407. D(H   8,H  16,H   7,O   6)    -37.8326         0.001513   
    408. D(O   6,H  16,H   7,H   4)     98.1165         0.001513   
    409. D(O   6,H  16,H   7,H   1)    154.6174         0.001513   
    410. D(O   6,H  16,H   7,O   0)    148.0665         0.001513   
    411. D(O   6,H  16,O  15,H  11)    -38.9370         0.380237   
    412. D(O  15,H  16,H   7,H   4)    -64.9339         0.001513   
    413. D(O  15,H  16,H   7,H   1)     -8.4331         0.001513   
    414. D(O  15,H  16,H   7,O   0)    -14.9839         0.001513   
    415. D(H   7,H  16,O  15,H  14)     72.9470         0.380237   
    416. D(O  15,H  16,H   7,O   6)   -163.0504         0.001513   
    417. D(H   8,H  16,O   6,H   7)    108.2199         0.001929   
    418. D(H   7,H  16,O   6,H   8)   -108.2199         0.001929   
    419. D(O  15,H  16,O   6,H   8)    -60.4202         0.001929   
    -----------------------------------------------------------------

Number of atoms                         .... 18
Number of degrees of freedom            .... 419

         *************************************************************
         *                GEOMETRY OPTIMIZATION CYCLE   1            *
         *************************************************************
---------------------------------
CARTESIAN COORDINATES (ANGSTROEM)
---------------------------------
  O     -1.511782   -0.232325    1.434522
  H     -0.613900   -0.631798    1.542476
  H     -2.015087   -0.484249    2.210210
  O     -1.744551   -0.350365   -1.322141
  H     -1.890020   -0.475498   -0.368433
  H     -2.508917   -0.726304   -1.761973
  O     -0.568902    2.010658   -0.079448
  H     -0.957800    1.521230    0.658817
  H     -0.991476    1.598457   -0.842120
  O      0.972064   -1.194842    1.413465
  H      0.986177   -1.536208    0.500658
  H      1.544338   -0.420911    1.334663
  O      0.983916   -1.359847   -1.372465
  H      0.077993   -1.073694   -1.552782
  H      1.480193   -0.535792   -1.283351
  O      2.003223    1.063257   -0.092296
  H      1.144078    1.530799   -0.098089
  H      2.672690    1.741694   -0.193152

----------------------------
CARTESIAN COORDINATES (A.U.)
----------------------------
  NO LB      ZA    FRAG     MASS         X           Y           Z
   0 O     8.0000    0    15.999   -2.856854   -0.439031    2.710854
   1 H     1.0000    0     1.008   -1.160103   -1.193925    2.914857
   2 H     1.0000    0     1.008   -3.807963   -0.915098    4.176692
   3 O     8.0000    0    15.999   -3.296724   -0.662094   -2.498484
   4 H     1.0000    0     1.008   -3.571620   -0.898561   -0.696237
   5 H     1.0000    0     1.008   -4.741166   -1.372516   -3.329646
   6 O     8.0000    0    15.999   -1.075069    3.799593   -0.150135
   7 H     1.0000    0     1.008   -1.809980    2.874708    1.244984
   8 H     1.0000    0     1.008   -1.873618    3.020646   -1.591376
   9 O     8.0000    0    15.999    1.836935   -2.257924    2.671062
  10 H     1.0000    0     1.008    1.863604   -2.903012    0.946107
  11 H     1.0000    0     1.008    2.918376   -0.795407    2.522148
  12 O     8.0000    0    15.999    1.859332   -2.569738   -2.593583
  13 H     1.0000    0     1.008    0.147385   -2.028988   -2.934333
  14 H     1.0000    0     1.008    2.797159   -1.012500   -2.425182
  15 O     8.0000    0    15.999    3.785543    2.009265   -0.174414
  16 H     1.0000    0     1.008    2.161994    2.892791   -0.185361
  17 H     1.0000    0     1.008    5.050652    3.291325   -0.365004

--------------------------------
INTERNAL COORDINATES (ANGSTROEM)
--------------------------------
 O      0   0   0     0.000000000000     0.00000000     0.00000000
 H      1   0   0     0.988647980714     0.00000000     0.00000000
 H      1   2   0     0.958370230206   106.40107860     0.00000000
 O      1   2   3     2.768990022468    99.66154740   212.47552383
 H      4   1   2     0.972819842989    16.67729903   119.09110810
 H      4   1   2     0.958664540859   122.71743384   129.27539765
 O      5   4   1     2.830165499840    85.25660701    25.76878351
 H      7   5   4     0.967376158386    56.34640489   176.00376880
 H      7   5   4     0.964441304311    48.64483482    18.50046316
 O      2   1   3     1.687881569706   168.46243150   174.47289154
 H     10   2   1     0.974652010706   101.65533573   317.98448536
 H     10   2   1     0.965751768852   107.19959144    63.82750841
 O     11  10   2     1.881408538189   154.10203042    71.17408028
 H     13  11  10     0.967002710351   102.38699361   288.52530951
 H     13  11  10     0.966073914745    89.28401566    32.95438596
 O     15  13  11     2.061341819865   147.70808320   337.15441420
 H     16  15  13     0.978140691127    98.30865326   288.32341443
 H     16  15  13     0.958454359787   131.72266037   168.19370025

---------------------------
INTERNAL COORDINATES (A.U.)
---------------------------
 O      0   0   0     0.000000000000     0.00000000     0.00000000
 H      1   0   0     1.868273926403     0.00000000     0.00000000
 H      1   2   0     1.811057269992   106.40107860     0.00000000
 O      1   2   3     5.232632810026    99.66154740   212.47552383
 H      4   1   2     1.838363080894    16.67729903   119.09110810
 H      4   1   2     1.811613436525   122.71743384   129.27539765
 O      5   4   1     5.348237708370    85.25660701    25.76878351
 H      7   5   4     1.828076007834    56.34640489   176.00376880
 H      7   5   4     1.822529937389    48.64483482    18.50046316
 O      2   1   3     3.189633913237   168.46243150   174.47289154
 H     10   2   1     1.841825376111   101.65533573   317.98448536
 H     10   2   1     1.825006356481   107.19959144    63.82750841
 O     11  10   2     3.555346883199   154.10203042    71.17408028
 H     13  11  10     1.827370293324   102.38699361   288.52530951
 H     13  11  10     1.825615123993    89.28401566    32.95438596
 O     15  13  11     3.895371507944   147.70808320   337.15441420
 H     16  15  13     1.848418026674    98.30865326   288.32341443
 H     16  15  13     1.811216251860   131.72266037   168.19370025

---------------------
BASIS SET INFORMATION
---------------------
There are 2 groups of distinct atoms

 Group   1 Type O   : 19s6p3d2f contracted to 5s4p3d2f pattern {88111/3111/111/11}
 Group   2 Type H   : 6s3p2d contracted to 4s3p2d pattern {3111/111/11}

Atom   0O    basis set group =>   1
Atom   1H    basis set group =>   2
Atom   2H    basis set group =>   2
Atom   3O    basis set group =>   1
Atom   4H    basis set group =>   2
Atom   5H    basis set group =>   2
Atom   6O    basis set group =>   1
Atom   7H    basis set group =>   2
Atom   8H    basis set group =>   2
Atom   9O    basis set group =>   1
Atom  10H    basis set group =>   2
Atom  11H    basis set group =>   2
Atom  12O    basis set group =>   1
Atom  13H    basis set group =>   2
Atom  14H    basis set group =>   2
Atom  15O    basis set group =>   1
Atom  16H    basis set group =>   2
Atom  17H    basis set group =>   2
---------------------------------
AUXILIARY/C BASIS SET INFORMATION
---------------------------------
There are 2 groups of distinct atoms

 Group   1 Type O   : 8s6p5d3f1g contracted to 8s6p4d3f1g pattern {11111111/111111/2111/111/1}
 Group   2 Type H   : 4s3p2d contracted to 4s2p1d pattern {1111/21/2}

Atom   0O    basis set group =>   1
Atom   1H    basis set group =>   2
Atom   2H    basis set group =>   2
Atom   3O    basis set group =>   1
Atom   4H    basis set group =>   2
Atom   5H    basis set group =>   2
Atom   6O    basis set group =>   1
Atom   7H    basis set group =>   2
Atom   8H    basis set group =>   2
Atom   9O    basis set group =>   1
Atom  10H    basis set group =>   2
Atom  11H    basis set group =>   2
Atom  12O    basis set group =>   1
Atom  13H    basis set group =>   2
Atom  14H    basis set group =>   2
Atom  15O    basis set group =>   1
Atom  16H    basis set group =>   2
Atom  17H    basis set group =>   2
----------------------------------
AUXILIARY/JK BASIS SET INFORMATION
----------------------------------
There are 2 groups of distinct atoms

 Group   1 Type O   : 14s10p6d2f1g contracted to 10s8p4d2f1g pattern {5111111111/31111111/3111/11/1}
 Group   2 Type H   : 4s2p2d contracted to 2s2p2d pattern {31/11/11}

Atom   0O    basis set group =>   1
Atom   1H    basis set group =>   2
Atom   2H    basis set group =>   2
Atom   3O    basis set group =>   1
Atom   4H    basis set group =>   2
Atom   5H    basis set group =>   2
Atom   6O    basis set group =>   1
Atom   7H    basis set group =>   2
Atom   8H    basis set group =>   2
Atom   9O    basis set group =>   1
Atom  10H    basis set group =>   2
Atom  11H    basis set group =>   2
Atom  12O    basis set group =>   1
Atom  13H    basis set group =>   2
Atom  14H    basis set group =>   2
Atom  15O    basis set group =>   1
Atom  16H    basis set group =>   2
Atom  17H    basis set group =>   2


           ************************************************************
           *        Program running with 24 parallel MPI-processes    *
           *              working on a common directory               *
           ************************************************************
------------------------------------------------------------------------------
                           ORCA GTO INTEGRAL CALCULATION
                           -- RI-GTO INTEGRALS CHOSEN --
------------------------------------------------------------------------------

                         BASIS SET STATISTICS AND STARTUP INFO

Gaussian basis set:
 # of primitive gaussian shells          ...  312
 # of primitive gaussian functions       ...  696
 # of contracted shells                  ...  192
 # of contracted basis functions         ...  552
 Highest angular momentum                ...    3
 Maximum contraction depth               ...    8
Auxiliary gaussian basis set:
 # of primitive gaussian shells          ...  294
 # of primitive gaussian functions       ...  822
 # of contracted shells                  ...  222
 # of contracted aux-basis functions     ...  678
 Highest angular momentum                ...    4
 Maximum contraction depth               ...    5
Ratio of auxiliary to basis functions    ...  1.23
Integral package used                  ... LIBINT
 One Electron integrals                  ... done
 Ordering auxiliary basis shells         ... done
 Integral threshhold             Thresh  ...  2.500e-11
 Primitive cut-off               TCut    ...  2.500e-12
 Pre-screening matrix                    ... done
 Shell pair data                         ... 
 Ordering of the shell pairs             ... done (   0.003 sec) 17765 of 18528 pairs
 Determination of significant pairs      ... done (   0.000 sec)
 Creation of shell pair data             ... done (   0.002 sec)
 Storage of shell pair data              ... done (   0.006 sec)
 Shell pair data done in (   0.011 sec)
 Computing two index integrals           ... done
 Cholesky decomposition of the V-matrix  ... done


Timings:
 Total evaluation time                   ...   0.409 sec (  0.007 min)
 One electron matrix time                ...   0.082 sec (  0.001 min) = 20.1%
 Schwartz matrix evaluation time         ...   0.201 sec (  0.003 min) = 49.1%
 Two index repulsion integral time       ...   0.009 sec (  0.000 min) =  2.1%
 Cholesky decomposition of V             ...   0.082 sec (  0.001 min) = 20.0%
 Three index repulsion integral time     ...   0.000 sec (  0.000 min) =  0.0%



           ************************************************************
           *        Program running with 24 parallel MPI-processes    *
           *              working on a common directory               *
           ************************************************************
-------------------------------------------------------------------------------
                                 ORCA SCF
-------------------------------------------------------------------------------

------------
SCF SETTINGS
------------
Hamiltonian:
 Density Functional     Method          .... DFT(GTOs)
 Exchange Functional    Exchange        .... B88
   X-Alpha parameter    XAlpha          ....  0.666667
   Becke's b parameter  XBeta           ....  0.004200
 Correlation Functional Correlation     .... LYP
 LDA part of GGA corr.  LDAOpt          .... VWN-3
 Gradients option       PostSCFGGA      .... off
 Hybrid DFT is turned on
   Fraction HF Exchange ScalHFX         ....  0.530000
   Scaling of DF-GGA-X  ScalDFX         ....  0.470000
   Scaling of DF-GGA-C  ScalDFC         ....  0.730000
   Scaling of DF-LDA-C  ScalLDAC        ....  0.730000
   Perturbative correction              ....  0.270000
   Density functional embedding theory  .... OFF
 RI-approximation to the Coulomb term is turned on
   Number of auxiliary basis functions  .... 678
   RI-JK (J+K treated both via RI)      .... on


General Settings:
 Integral files         IntName         .... 09_H2O_6_prism
 Hartree-Fock type      HFTyp           .... RHF
 Total Charge           Charge          ....    0
 Multiplicity           Mult            ....    1
 Number of Electrons    NEL             ....   60
 Basis Dimension        Dim             ....  552
 Nuclear Repulsion      ENuc            ....    304.8722684032 Eh

Convergence Acceleration:
 DIIS                   CNVDIIS         .... on
   Start iteration      DIISMaxIt       ....    12
   Startup error        DIISStart       ....  0.200000
   # of expansion vecs  DIISMaxEq       ....     5
   Bias factor          DIISBfac        ....   1.050
   Max. coefficient     DIISMaxC        ....  10.000
 Newton-Raphson         CNVNR           .... off
 SOSCF                  CNVSOSCF        .... on
   Start iteration      SOSCFMaxIt      ....   150
   Startup grad/error   SOSCFStart      ....  0.003300
 Level Shifting         CNVShift        .... on
   Level shift para.    LevelShift      ....    0.2500
   Turn off err/grad.   ShiftErr        ....    0.0010
 Zerner damping         CNVZerner       .... off
 Static damping         CNVDamp         .... on
   Fraction old density DampFac         ....    0.7000
   Max. Damping (<1)    DampMax         ....    0.9800
   Min. Damping (>=0)   DampMin         ....    0.0000
   Turn off err/grad.   DampErr         ....    0.1000
 Fernandez-Rico         CNVRico         .... off

SCF Procedure:
 Maximum # iterations   MaxIter         ....   125
 SCF integral mode      SCFMode         .... Direct
   Integral package                     .... LIBINT
 Reset frequency        DirectResetFreq ....    20
 Integral Threshold     Thresh          ....  2.500e-11 Eh
 Primitive CutOff       TCut            ....  2.500e-12 Eh

Convergence Tolerance:
 Convergence Check Mode ConvCheckMode   .... Total+1el-Energy
 Convergence forced     ConvForced      .... 0
 Energy Change          TolE            ....  1.000e-08 Eh
 1-El. energy change                    ....  1.000e-05 Eh
 Orbital Gradient       TolG            ....  1.000e-05
 Orbital Rotation angle TolX            ....  1.000e-05
 DIIS Error             TolErr          ....  5.000e-07


Diagonalization of the overlap matrix:
Smallest eigenvalue                        ... 3.067e-05
Time for diagonalization                   ...    0.052 sec
Threshold for overlap eigenvalues          ... 1.000e-08
Number of eigenvalues below threshold      ... 0
Time for construction of square roots      ...    0.045 sec
Total time needed                          ...    0.097 sec

-------------------
DFT GRID GENERATION
-------------------

General Integration Accuracy     IntAcc      ...  4.670
Radial Grid Type                 RadialGrid  ... Gauss-Chebyshev
Angular Grid (max. acc.)         AngularGrid ... Lebedev-302
Angular grid pruning method      GridPruning ... 3 (G Style)
Weight generation scheme         WeightScheme... Becke
Basis function cutoff            BFCut       ...    1.0000e-11
Integration weight cutoff        WCut        ...    1.0000e-14
Grids for H and He will be reduced by one unit

# of grid points (after initial pruning)     ...  78000 (   0.0 sec)
# of grid points (after weights+screening)   ...  71466 (   0.0 sec)
nearest neighbour list constructed           ...    0.0 sec
Grid point re-assignment to atoms done       ...    0.0 sec
Grid point division into batches done        ...    0.2 sec
Reduced shell lists constructed in    0.3 sec

Total number of grid points                  ...    71466
Total number of batches                      ...     1127
Average number of points per batch           ...       63
Average number of grid points per atom       ...     3970
Average number of shells per batch           ...   143.62 (74.80%)
Average number of basis functions per batch  ...   403.12 (73.03%)
Average number of large shells per batch     ...   117.60 (81.88%)
Average number of large basis fcns per batch ...   322.44 (79.98%)
Average number of aux-shells per batch       ...   143.62 (64.70%)
Average number of aux functions per batch    ...   403.12 (59.46%)
Maximum spatial batch extension              ...   2.66,  2.86,  2.23 au
Average spatial batch extension              ...   0.04,  0.04,  0.04 au

Time for grid setup =    0.353 sec

------------------------------
INITIAL GUESS: MODEL POTENTIAL
------------------------------
Loading Hartree-Fock densities                     ... done
Calculating cut-offs                               ... done
Setting up the integral package                    ... done
Initializing the effective Hamiltonian             ... done
Starting the Coulomb interaction                   ... done (   0.0 sec)
Reading the grid                                   ... done
Mapping shells                                     ... done
Starting the XC term evaluation                    ... done (   0.2 sec)
  promolecular density results
     # of electrons  =     59.993462020
     EX              =    -52.745719091
     EC              =     -0.684020220
     EX+EC           =    -53.429739310
Transforming the Hamiltonian                       ... done (   0.0 sec)
Diagonalizing the Hamiltonian                      ... done (   0.0 sec)
Back transforming the eigenvectors                 ... done (   0.0 sec)
Now organizing SCF variables                       ... done
                      ------------------
                      INITIAL GUESS DONE (   0.7 sec)
                      ------------------
--------------
SCF ITERATIONS
--------------
ITER       Energy         Delta-E        Max-DP      RMS-DP      [F,P]     Damp
  0   -457.5601599882   0.000000000000 0.04713710  0.00062119  0.3455005 0.7000
  1   -457.2305262016   0.329633786598 0.03792509  0.00057598  0.2485998 0.7000
                               ***Turning on DIIS***
  2   -457.3908264354  -0.160300233745 0.04581293  0.00087923  0.0949960 0.0000
  3   -457.8781260434  -0.487299608004 0.01155677  0.00014839  0.1908313 0.7000
  4   -458.0301645558  -0.152038512398 0.00931586  0.00014068  0.1711370 0.7000
  5   -458.0608882762  -0.030723720472 0.00726975  0.00011464  0.1360919 0.7000
  6   -458.0659810970  -0.005092820738 0.00583051  0.00009342  0.1058730 0.7000
  7   -458.0656958247   0.000285272239 0.02641973  0.00041224  0.0818641 0.0000
  8   -458.0294486122   0.036247212512 0.00486710  0.00005937  0.0160208 0.0000
  9   -458.0304232576  -0.000974645363 0.00094586  0.00001545  0.0048517 0.0000
                      *** Initiating the SOSCF procedure ***
                           *** Shutting down DIIS ***
                      *** Re-Reading the Fockian *** 
                      *** Removing any level shift *** 
ITER      Energy       Delta-E        Grad      Rot      Max-DP    RMS-DP
 10   -458.03050080  -0.0000775454  0.000112  0.000112  0.000339  0.000005
 11   -458.03050960  -0.0000087933  0.000093  0.000151  0.000272  0.000005
 12   -458.03050967  -0.0000000717  0.000090  0.000059  0.000189  0.000002
 13   -458.03051096  -0.0000012912  0.000004  0.000004  0.000014  0.000000
                  ***Gradient check signals convergence***
              ***Rediagonalizing the Fockian in SOSCF/NRSCF***

               *****************************************************
               *                     SUCCESS                       *
               *           SCF CONVERGED AFTER  14 CYCLES          *
               *****************************************************


----------------
TOTAL SCF ENERGY
----------------

Total Energy       :         -458.03051096 Eh          -12463.64384 eV

Components:
Nuclear Repulsion  :          304.87226840 Eh            8295.99618 eV
Electronic Energy  :         -762.90277936 Eh          -20759.64003 eV
One Electron Energy:        -1237.74562107 Eh          -33680.77065 eV
Two Electron Energy:          474.84284171 Eh           12921.13062 eV

Virial components:
Potential Energy   :         -914.28994115 Eh          -24879.09413 eV
Kinetic Energy     :          456.25943019 Eh           12415.45028 eV
Virial Ratio       :            2.00388174


DFT components:
N(Alpha)           :       29.999843214338 electrons
N(Beta)            :       29.999843214338 electrons
N(Total)           :       59.999686428676 electrons
E(X)               :      -25.337422683446 Eh       
E(C)               :       -1.520714462032 Eh       
E(XC)              :      -26.858137145479 Eh       
DFET-embed. en.    :        0.000000000000 Eh       

---------------
SCF CONVERGENCE
---------------

  Last Energy change         ...   -9.1717e-10  Tolerance :   1.0000e-08
  Last MAX-Density change    ...    1.1583e-05  Tolerance :   1.0000e-07
  Last RMS-Density change    ...    1.3287e-07  Tolerance :   5.0000e-09
  Last Orbital Gradient      ...    1.6938e-06  Tolerance :   1.0000e-05
  Last Orbital Rotation      ...    1.3913e-06  Tolerance :   1.0000e-05

             **** THE GBW FILE WAS UPDATED (09_H2O_6_prism.gbw) ****
             **** DENSITY FILE WAS UPDATED (09_H2O_6_prism.scfp) ****
             **** ENERGY FILE WAS UPDATED (09_H2O_6_prism.en.tmp) ****
             **** THE GBW FILE WAS UPDATED (09_H2O_6_prism.gbw) ****
             **** DENSITY FILE WAS UPDATED (09_H2O_6_prism.scfp) ****
----------------
ORBITAL ENERGIES
----------------

  NO   OCC          E(Eh)            E(eV) 
   0   2.0000     -19.749511      -537.4115 
   1   2.0000     -19.744476      -537.2745 
   2   2.0000     -19.734222      -536.9955 
   3   2.0000     -19.732503      -536.9487 
   4   2.0000     -19.721442      -536.6477 
   5   2.0000     -19.713133      -536.4216 
   6   2.0000      -1.181801       -32.1584 
   7   2.0000      -1.168272       -31.7903 
   8   2.0000      -1.164378       -31.6843 
   9   2.0000      -1.155047       -31.4304 
  10   2.0000      -1.145564       -31.1724 
  11   2.0000      -1.134307       -30.8661 
  12   2.0000      -0.643832       -17.5196 
  13   2.0000      -0.627950       -17.0874 
  14   2.0000      -0.622389       -16.9361 
  15   2.0000      -0.608123       -16.5479 
  16   2.0000      -0.597931       -16.2705 
  17   2.0000      -0.594696       -16.1825 
  18   2.0000      -0.519132       -14.1263 
  19   2.0000      -0.512904       -13.9568 
  20   2.0000      -0.490100       -13.3363 
  21   2.0000      -0.480493       -13.0749 
  22   2.0000      -0.470329       -12.7983 
  23   2.0000      -0.446743       -12.1565 
  24   2.0000      -0.418853       -11.3976 
  25   2.0000      -0.416746       -11.3402 
  26   2.0000      -0.406034       -11.0487 
  27   2.0000      -0.402811       -10.9610 
  28   2.0000      -0.395176       -10.7533 
  29   2.0000      -0.379199       -10.3185 
  30   0.0000      -0.004874        -0.1326 
  31   0.0000       0.012011         0.3268 
  32   0.0000       0.016384         0.4458 
  33   0.0000       0.036044         0.9808 
  34   0.0000       0.043063         1.1718 
  35   0.0000       0.045780         1.2457 
  36   0.0000       0.052636         1.4323 
  37   0.0000       0.055388         1.5072 
  38   0.0000       0.056179         1.5287 
  39   0.0000       0.067564         1.8385 
  40   0.0000       0.075892         2.0651 
  41   0.0000       0.078346         2.1319 
  42   0.0000       0.102159         2.7799 
  43   0.0000       0.108118         2.9420 
  44   0.0000       0.110687         3.0119 
  45   0.0000       0.130576         3.5531 
  46   0.0000       0.137327         3.7368 
  47   0.0000       0.139298         3.7905 
  48   0.0000       0.143905         3.9159 
  49   0.0000       0.149966         4.0808 
  50   0.0000       0.157544         4.2870 
  51   0.0000       0.160955         4.3798 
  52   0.0000       0.164902         4.4872 
  53   0.0000       0.171135         4.6568 
  54   0.0000       0.174741         4.7549 
  55   0.0000       0.186164         5.0658 
  56   0.0000       0.188296         5.1238 
  57   0.0000       0.189047         5.1442 
  58   0.0000       0.193468         5.2645 
  59   0.0000       0.200946         5.4680 
  60   0.0000       0.202317         5.5053 
  61   0.0000       0.207903         5.6573 
  62   0.0000       0.211308         5.7500 
  63   0.0000       0.218249         5.9388 
  64   0.0000       0.218782         5.9534 
  65   0.0000       0.230312         6.2671 
  66   0.0000       0.240210         6.5364 
  67   0.0000       0.247578         6.7369 
  68   0.0000       0.262663         7.1474 
  69   0.0000       0.273754         7.4492 
  70   0.0000       0.276639         7.5277 
  71   0.0000       0.294203         8.0057 
  72   0.0000       0.303605         8.2615 
  73   0.0000       0.307727         8.3737 
  74   0.0000       0.316042         8.5999 
  75   0.0000       0.320993         8.7347 
  76   0.0000       0.331068         9.0088 
  77   0.0000       0.336652         9.1608 
  78   0.0000       0.345506         9.4017 
  79   0.0000       0.352443         9.5905 
  80   0.0000       0.357283         9.7222 
  81   0.0000       0.360983         9.8228 
  82   0.0000       0.362900         9.8750 
  83   0.0000       0.367685        10.0052 
  84   0.0000       0.373804        10.1717 
  85   0.0000       0.377773        10.2797 
  86   0.0000       0.380558        10.3555 
  87   0.0000       0.388035        10.5590 
  88   0.0000       0.392215        10.6727 
  89   0.0000       0.394143        10.7252 
  90   0.0000       0.399329        10.8663 
  91   0.0000       0.407077        11.0771 
  92   0.0000       0.415941        11.3183 
  93   0.0000       0.418039        11.3754 
  94   0.0000       0.423887        11.5346 
  95   0.0000       0.428761        11.6672 
  96   0.0000       0.435777        11.8581 
  97   0.0000       0.440808        11.9950 
  98   0.0000       0.446108        12.1392 
  99   0.0000       0.453726        12.3465 
 100   0.0000       0.456102        12.4112 
 101   0.0000       0.461641        12.5619 
 102   0.0000       0.463941        12.6245 
 103   0.0000       0.471665        12.8347 
 104   0.0000       0.477603        12.9962 
 105   0.0000       0.491183        13.3658 
 106   0.0000       0.496642        13.5143 
 107   0.0000       0.501619        13.6497 
 108   0.0000       0.506482        13.7821 
 109   0.0000       0.521833        14.1998 
 110   0.0000       0.529321        14.4036 
 111   0.0000       0.537666        14.6306 
 112   0.0000       0.554955        15.1011 
 113   0.0000       0.563019        15.3205 
 114   0.0000       0.574700        15.6384 
 115   0.0000       0.581865        15.8333 
 116   0.0000       0.594323        16.1723 
 117   0.0000       0.616585        16.7781 
 118   0.0000       0.622917        16.9504 
 119   0.0000       0.634997        17.2792 
 120   0.0000       0.650699        17.7064 
 121   0.0000       0.659144        17.9362 
 122   0.0000       0.671238        18.2653 
 123   0.0000       0.682751        18.5786 
 124   0.0000       0.686499        18.6806 
 125   0.0000       0.694165        18.8892 
 126   0.0000       0.707747        19.2588 
 127   0.0000       0.716937        19.5088 
 128   0.0000       0.720156        19.5964 
 129   0.0000       0.726453        19.7678 
 130   0.0000       0.728752        19.8304 
 131   0.0000       0.736796        20.0492 
 132   0.0000       0.745274        20.2799 
 133   0.0000       0.762484        20.7483 
 134   0.0000       0.765591        20.8328 
 135   0.0000       0.776019        21.1165 
 136   0.0000       0.787301        21.4236 
 137   0.0000       0.788810        21.4646 
 138   0.0000       0.802068        21.8254 
 139   0.0000       0.808039        21.9879 
 140   0.0000       0.813112        22.1259 
 141   0.0000       0.820513        22.3273 
 142   0.0000       0.835721        22.7411 
 143   0.0000       0.837323        22.7847 
 144   0.0000       0.845351        23.0032 
 145   0.0000       0.853007        23.2115 
 146   0.0000       0.859118        23.3778 
 147   0.0000       0.866559        23.5803 
 148   0.0000       0.871793        23.7227 
 149   0.0000       0.886153        24.1135 
 150   0.0000       0.893164        24.3042 
 151   0.0000       0.899681        24.4816 
 152   0.0000       0.912718        24.8363 
 153   0.0000       0.920185        25.0395 
 154   0.0000       0.922914        25.1138 
 155   0.0000       0.926997        25.2249 
 156   0.0000       0.928969        25.2785 
 157   0.0000       0.943085        25.6626 
 158   0.0000       0.951437        25.8899 
 159   0.0000       0.959570        26.1112 
 160   0.0000       0.960407        26.1340 
 161   0.0000       0.973888        26.5008 
 162   0.0000       0.975393        26.5418 
 163   0.0000       0.995382        27.0857 
 164   0.0000       0.997005        27.1299 
 165   0.0000       1.007216        27.4077 
 166   0.0000       1.016773        27.6678 
 167   0.0000       1.027852        27.9693 
 168   0.0000       1.031519        28.0691 
 169   0.0000       1.040479        28.3129 
 170   0.0000       1.042573        28.3699 
 171   0.0000       1.055495        28.7215 
 172   0.0000       1.058579        28.8054 
 173   0.0000       1.060618        28.8609 
 174   0.0000       1.069387        29.0995 
 175   0.0000       1.078497        29.3474 
 176   0.0000       1.082897        29.4671 
 177   0.0000       1.094293        29.7772 
 178   0.0000       1.097741        29.8711 
 179   0.0000       1.105565        30.0840 
 180   0.0000       1.119319        30.4582 
 181   0.0000       1.123993        30.5854 
 182   0.0000       1.127584        30.6831 
 183   0.0000       1.135466        30.8976 
 184   0.0000       1.144851        31.1530 
 185   0.0000       1.154962        31.4281 
 186   0.0000       1.167596        31.7719 
 187   0.0000       1.173232        31.9253 
 188   0.0000       1.185893        32.2698 
 189   0.0000       1.193477        32.4761 
 190   0.0000       1.194416        32.5017 
 191   0.0000       1.205246        32.7964 
 192   0.0000       1.221833        33.2478 
 193   0.0000       1.227742        33.4086 
 194   0.0000       1.238197        33.6931 
 195   0.0000       1.244771        33.8719 
 196   0.0000       1.259396        34.2699 
 197   0.0000       1.267718        34.4964 
 198   0.0000       1.274320        34.6760 
 199   0.0000       1.283932        34.9376 
 200   0.0000       1.289437        35.0874 
 201   0.0000       1.306817        35.5603 
 202   0.0000       1.310846        35.6699 
 203   0.0000       1.321598        35.9625 
 204   0.0000       1.329308        36.1723 
 205   0.0000       1.345540        36.6140 
 206   0.0000       1.352917        36.8148 
 207   0.0000       1.360991        37.0344 
 208   0.0000       1.365914        37.1684 
 209   0.0000       1.385251        37.6946 
 210   0.0000       1.394179        37.9375 
 211   0.0000       1.402812        38.1725 
 212   0.0000       1.423615        38.7385 
 213   0.0000       1.432645        38.9842 
 214   0.0000       1.437898        39.1272 
 215   0.0000       1.448429        39.4138 
 216   0.0000       1.451009        39.4840 
 217   0.0000       1.471122        40.0313 
 218   0.0000       1.483098        40.3571 
 219   0.0000       1.487123        40.4667 
 220   0.0000       1.488100        40.4933 
 221   0.0000       1.500895        40.8414 
 222   0.0000       1.513721        41.1905 
 223   0.0000       1.525185        41.5024 
 224   0.0000       1.545759        42.0622 
 225   0.0000       1.550904        42.2022 
 226   0.0000       1.566666        42.6311 
 227   0.0000       1.578069        42.9414 
 228   0.0000       1.588688        43.2304 
 229   0.0000       1.597882        43.4806 
 230   0.0000       1.606337        43.7107 
 231   0.0000       1.615534        43.9609 
 232   0.0000       1.627719        44.2925 
 233   0.0000       1.636295        44.5258 
 234   0.0000       1.669366        45.4258 
 235   0.0000       1.677054        45.6350 
 236   0.0000       1.687016        45.9060 
 237   0.0000       1.688562        45.9481 
 238   0.0000       1.703600        46.3573 
 239   0.0000       1.709037        46.5053 
 240   0.0000       1.733516        47.1714 
 241   0.0000       1.743187        47.4345 
 242   0.0000       1.756482        47.7963 
 243   0.0000       1.766082        48.0575 
 244   0.0000       1.783509        48.5318 
 245   0.0000       1.797759        48.9195 
 246   0.0000       1.805164        49.1210 
 247   0.0000       1.805545        49.1314 
 248   0.0000       1.820045        49.5259 
 249   0.0000       1.830950        49.8227 
 250   0.0000       1.858754        50.5793 
 251   0.0000       1.866745        50.7967 
 252   0.0000       1.870866        50.9089 
 253   0.0000       1.883568        51.2545 
 254   0.0000       1.902771        51.7770 
 255   0.0000       1.908676        51.9377 
 256   0.0000       1.938984        52.7624 
 257   0.0000       1.952288        53.1245 
 258   0.0000       1.966680        53.5161 
 259   0.0000       1.994201        54.2650 
 260   0.0000       2.016731        54.8780 
 261   0.0000       2.026522        55.1445 
 262   0.0000       2.038149        55.4609 
 263   0.0000       2.061161        56.0870 
 264   0.0000       2.073455        56.4216 
 265   0.0000       2.097409        57.0734 
 266   0.0000       2.103285        57.2333 
 267   0.0000       2.149257        58.4843 
 268   0.0000       2.169442        59.0335 
 269   0.0000       2.181491        59.3614 
 270   0.0000       2.192780        59.6686 
 271   0.0000       2.227595        60.6159 
 272   0.0000       2.234036        60.7912 
 273   0.0000       2.261258        61.5320 
 274   0.0000       2.267416        61.6995 
 275   0.0000       2.282496        62.1099 
 276   0.0000       2.298771        62.5527 
 277   0.0000       2.313660        62.9579 
 278   0.0000       2.328874        63.3719 
 279   0.0000       2.331486        63.4430 
 280   0.0000       2.345038        63.8117 
 281   0.0000       2.356502        64.1237 
 282   0.0000       2.366651        64.3998 
 283   0.0000       2.375414        64.6383 
 284   0.0000       2.387889        64.9778 
 285   0.0000       2.399085        65.2824 
 286   0.0000       2.411314        65.6152 
 287   0.0000       2.412623        65.6508 
 288   0.0000       2.431181        66.1558 
 289   0.0000       2.442118        66.4534 
 290   0.0000       2.472131        67.2701 
 291   0.0000       2.474687        67.3396 
 292   0.0000       2.484910        67.6178 
 293   0.0000       2.500337        68.0376 
 294   0.0000       2.513404        68.3932 
 295   0.0000       2.526609        68.7525 
 296   0.0000       2.537502        69.0489 
 297   0.0000       2.544208        69.2314 
 298   0.0000       2.549537        69.3764 
 299   0.0000       2.564452        69.7823 
 300   0.0000       2.576553        70.1116 
 301   0.0000       2.583960        70.3131 
 302   0.0000       2.589566        70.4657 
 303   0.0000       2.602132        70.8076 
 304   0.0000       2.614277        71.1381 
 305   0.0000       2.626685        71.4757 
 306   0.0000       2.636949        71.7550 
 307   0.0000       2.642660        71.9104 
 308   0.0000       2.651474        72.1503 
 309   0.0000       2.656867        72.2970 
 310   0.0000       2.678127        72.8755 
 311   0.0000       2.688825        73.1667 
 312   0.0000       2.696234        73.3683 
 313   0.0000       2.704356        73.5893 
 314   0.0000       2.722420        74.0808 
 315   0.0000       2.730694        74.3060 
 316   0.0000       2.751973        74.8850 
 317   0.0000       2.764299        75.2204 
 318   0.0000       2.768997        75.3482 
 319   0.0000       2.783511        75.7432 
 320   0.0000       2.790057        75.9213 
 321   0.0000       2.800081        76.1941 
 322   0.0000       2.812722        76.5381 
 323   0.0000       2.824164        76.8494 
 324   0.0000       2.828837        76.9766 
 325   0.0000       2.851040        77.5807 
 326   0.0000       2.861341        77.8610 
 327   0.0000       2.864364        77.9433 
 328   0.0000       2.870510        78.1105 
 329   0.0000       2.895234        78.7833 
 330   0.0000       2.904219        79.0278 
 331   0.0000       2.921531        79.4989 
 332   0.0000       2.947442        80.2040 
 333   0.0000       2.962693        80.6190 
 334   0.0000       2.970862        80.8413 
 335   0.0000       2.976286        80.9889 
 336   0.0000       2.993522        81.4579 
 337   0.0000       3.009420        81.8905 
 338   0.0000       3.026099        82.3443 
 339   0.0000       3.045307        82.8670 
 340   0.0000       3.062393        83.3320 
 341   0.0000       3.089126        84.0594 
 342   0.0000       3.101146        84.3865 
 343   0.0000       3.114134        84.7399 
 344   0.0000       3.121557        84.9419 
 345   0.0000       3.130396        85.1824 
 346   0.0000       3.163705        86.0888 
 347   0.0000       3.236366        88.0660 
 348   0.0000       3.716608       101.1341 
 349   0.0000       3.747625       101.9781 
 350   0.0000       3.786044       103.0235 
 351   0.0000       3.808997       103.6481 
 352   0.0000       3.867277       105.2340 
 353   0.0000       3.872441       105.3745 
 354   0.0000       3.906145       106.2916 
 355   0.0000       3.939466       107.1983 
 356   0.0000       3.961017       107.7848 
 357   0.0000       3.967999       107.9747 
 358   0.0000       3.982154       108.3599 
 359   0.0000       3.991148       108.6046 
 360   0.0000       4.009839       109.1133 
 361   0.0000       4.031582       109.7049 
 362   0.0000       4.039628       109.9239 
 363   0.0000       4.047298       110.1326 
 364   0.0000       4.058630       110.4409 
 365   0.0000       4.079231       111.0015 
 366   0.0000       4.097445       111.4971 
 367   0.0000       4.128901       112.3531 
 368   0.0000       4.146671       112.8366 
 369   0.0000       4.162921       113.2788 
 370   0.0000       4.167910       113.4146 
 371   0.0000       4.175142       113.6114 
 372   0.0000       4.188804       113.9832 
 373   0.0000       4.191452       114.0552 
 374   0.0000       4.212496       114.6278 
 375   0.0000       4.219756       114.8254 
 376   0.0000       4.226792       115.0169 
 377   0.0000       4.230143       115.1080 
 378   0.0000       4.254739       115.7773 
 379   0.0000       4.263258       116.0091 
 380   0.0000       4.266108       116.0867 
 381   0.0000       4.274131       116.3050 
 382   0.0000       4.288742       116.7026 
 383   0.0000       4.302842       117.0863 
 384   0.0000       4.337643       118.0333 
 385   0.0000       4.346310       118.2691 
 386   0.0000       4.354931       118.5037 
 387   0.0000       4.362313       118.7046 
 388   0.0000       4.380428       119.1975 
 389   0.0000       4.399339       119.7121 
 390   0.0000       4.402439       119.7965 
 391   0.0000       4.410791       120.0237 
 392   0.0000       4.442195       120.8783 
 393   0.0000       4.453182       121.1772 
 394   0.0000       4.463206       121.4500 
 395   0.0000       4.463623       121.4614 
 396   0.0000       4.488829       122.1473 
 397   0.0000       4.495412       122.3264 
 398   0.0000       4.517906       122.9385 
 399   0.0000       4.520987       123.0223 
 400   0.0000       4.542728       123.6139 
 401   0.0000       4.549355       123.7942 
 402   0.0000       4.557870       124.0260 
 403   0.0000       4.575750       124.5125 
 404   0.0000       4.584298       124.7451 
 405   0.0000       4.594628       125.0262 
 406   0.0000       4.602044       125.2280 
 407   0.0000       4.615470       125.5933 
 408   0.0000       4.655952       126.6949 
 409   0.0000       4.677062       127.2693 
 410   0.0000       4.690037       127.6224 
 411   0.0000       4.704447       128.0145 
 412   0.0000       4.718923       128.4084 
 413   0.0000       4.734219       128.8246 
 414   0.0000       4.747903       129.1970 
 415   0.0000       4.783315       130.1606 
 416   0.0000       4.814556       131.0107 
 417   0.0000       4.817416       131.0886 
 418   0.0000       4.832860       131.5088 
 419   0.0000       4.857629       132.1828 
 420   0.0000       4.890480       133.0767 
 421   0.0000       4.915613       133.7606 
 422   0.0000       4.931664       134.1974 
 423   0.0000       4.952258       134.7578 
 424   0.0000       4.983571       135.6099 
 425   0.0000       4.994431       135.9054 
 426   0.0000       5.027283       136.7993 
 427   0.0000       5.052678       137.4904 
 428   0.0000       5.057536       137.6225 
 429   0.0000       5.074847       138.0936 
 430   0.0000       5.085624       138.3869 
 431   0.0000       5.112507       139.1184 
 432   0.0000       5.117162       139.2451 
 433   0.0000       5.132218       139.6547 
 434   0.0000       5.151151       140.1699 
 435   0.0000       5.163109       140.4953 
 436   0.0000       5.167692       140.6201 
 437   0.0000       5.181415       140.9935 
 438   0.0000       5.198580       141.4606 
 439   0.0000       5.204807       141.6300 
 440   0.0000       5.212101       141.8285 
 441   0.0000       5.226593       142.2228 
 442   0.0000       5.237807       142.5280 
 443   0.0000       5.252508       142.9280 
[...]
      1       0.026136   0.002061  -0.003303   0.000297   0.000033  -0.000856
      2      -0.009273  -0.000734   0.001574   0.000183   0.000201  -0.001320
      3       0.886839   0.062375  -0.133714   0.040003   0.004614  -0.043219
      4      -0.398622  -0.027831   0.055018  -0.016267  -0.001322   0.018351
      5       0.113792   0.006163  -0.009407   0.001132   0.000514  -0.001704
      6      -0.049887  -0.003972   0.010756   0.002212   0.000649  -0.010815
      7      -0.012838  -0.000079   0.002010   0.002503   0.000544  -0.008177
      8       0.057079   0.004389  -0.008072  -0.014902  -0.002097   0.018608
      9       0.000894   0.000196   0.004737  -0.014865  -0.000790   0.002200
     10       0.001120   0.000629   0.003646  -0.010322  -0.000591   0.001466
     11      -0.005771  -0.001244  -0.017080   0.051876   0.006212  -0.003449
     12      -0.016427  -0.003730  -0.043224   0.126612   0.010864  -0.009780
     13      -0.015483  -0.006528  -0.038894   0.114171   0.012295  -0.010274
     14       0.084956   0.021682   0.296265  -0.902175  -0.101965   0.076205
     15      -0.005064  -0.001099  -0.039103   0.117343   0.000550  -0.023545
     16      -0.002747  -0.000291  -0.018618   0.055866   0.001218  -0.011101
     17      -0.004933  -0.001542  -0.029723   0.091441   0.004849  -0.015977
     18       0.000763  -0.002713  -0.000508   0.001325  -0.000866   0.029691
     19       0.001624  -0.004275  -0.000720   0.002002  -0.000788   0.034714
     20      -0.002321   0.001281   0.001426  -0.007308  -0.002955  -0.028357
     21      -0.015990   0.035578   0.008141  -0.040375  -0.005646  -0.350247
     22      -0.016613   0.037921   0.011132  -0.045421  -0.005987  -0.434621
     23       0.040208  -0.066794  -0.020513   0.079373   0.006763   0.741876
     24       0.000759   0.028018  -0.000590   0.019001   0.018597  -0.125309
     25       0.000684   0.020333  -0.001031   0.015231   0.016910  -0.114386
     26      -0.007963   0.048098  -0.001178   0.034232   0.039342  -0.292406
     27       0.000204   0.001173  -0.001303  -0.000906   0.003820  -0.000358
     28      -0.000069   0.002281   0.019011   0.006737   0.001543  -0.001094
     29       0.007105   0.000969   0.051462   0.018511  -0.009332  -0.000771
     30       0.002604   0.003132  -0.006654  -0.001640   0.003345  -0.000736
     31      -0.051860  -0.002917  -0.371220  -0.131113   0.061731   0.003684
     32      -0.105385  -0.014200  -0.835427  -0.300427   0.152099   0.012181
     33       0.035933  -0.021732   0.036143   0.015265  -0.063386   0.009442
     34       0.036595  -0.028731   0.063382   0.024204  -0.087236   0.012336
     35       0.002605  -0.003513   0.027010   0.008066  -0.000517   0.000241
     36       0.001422   0.003314   0.005852  -0.005194   0.031111  -0.000129
     37      -0.000988   0.002356  -0.008033  -0.000239  -0.038664  -0.000776
     38      -0.000690   0.000496   0.000557  -0.001164   0.006828  -0.000023
     39      -0.027227  -0.022394  -0.153471   0.063901  -0.786807  -0.006933
     40       0.007674   0.007360   0.040661  -0.019983   0.202877   0.000444
     41      -0.007422  -0.006135  -0.034893   0.014414  -0.163323  -0.001375
     42       0.007304  -0.026659   0.064371   0.013969   0.296082   0.009117
     43       0.006801  -0.042046   0.090647   0.024808   0.410870   0.011747
     44       0.004649   0.000329   0.008183   0.000591   0.047554   0.001151
     45       0.003797  -0.050034   0.000134  -0.001198  -0.000768  -0.004229
     46      -0.002027   0.033085  -0.000531   0.000758  -0.000430   0.003616
     47      -0.000207  -0.000991   0.000464   0.000232   0.000117  -0.000228
     48      -0.057120   0.864082  -0.007023   0.021114   0.004164   0.090096
     49       0.032990  -0.464101   0.004308  -0.010606  -0.001155  -0.041954
     50       0.000612   0.004274  -0.002045  -0.001427   0.000469   0.000943
     51       0.004806  -0.095798   0.003412  -0.002010   0.006097  -0.019021
     52       0.003990  -0.066666   0.002777  -0.001210   0.006626  -0.014416
     53      -0.001113   0.010780   0.000263   0.000374  -0.000686   0.002255
                 48         49         50         51         52         53    
      0       0.001462   0.000612   0.001187  -0.036801  -0.006707   0.002498
      1      -0.000942  -0.000543  -0.000443  -0.012908  -0.002198   0.001128
      2       0.000701   0.000407  -0.000826   0.047217   0.008402  -0.004021
      3      -0.031803  -0.016186  -0.015304   0.041169   0.010162   0.004914
      4       0.011775   0.005887   0.007648  -0.032811  -0.007257  -0.000370
      5      -0.001729   0.000033  -0.000669   0.030344   0.005606  -0.002506
      6       0.006114   0.005290  -0.007216   0.539443   0.096345  -0.044736
      7       0.001913   0.002229  -0.005022   0.238908   0.042847  -0.019453
      8      -0.007856  -0.006736   0.012194  -0.778486  -0.139228   0.063179
      9      -0.000303  -0.000034   0.000717   0.003507   0.002787   0.045559
     10      -0.000042  -0.000258   0.000791   0.001759   0.001388   0.021650
     11       0.002477  -0.001454  -0.004893   0.001696   0.002165   0.039237
     12       0.003927  -0.002854  -0.007736   0.000665   0.002187   0.047125
     13       0.004491  -0.001727  -0.007802  -0.000803   0.000899   0.032393
     14      -0.039837   0.020184   0.084156   0.008067  -0.004942  -0.140704
     15      -0.002441   0.006115  -0.002997  -0.056748  -0.046416  -0.769697
     16      -0.000549   0.002503  -0.000553  -0.027742  -0.022623  -0.375705
     17       0.000752   0.002391  -0.005608  -0.035347  -0.029004  -0.479459
     18      -0.001694   0.001031  -0.016095   0.000305   0.000746  -0.000725
     19      -0.001456   0.000704  -0.012910   0.000510   0.000626  -0.000751
     20      -0.006652   0.009334  -0.061681  -0.001594  -0.000236   0.000247
     21      -0.014957   0.030044  -0.137577  -0.009576  -0.004812   0.006573
     22      -0.017099   0.036770  -0.166157  -0.011612  -0.006906   0.008395
     23       0.022933  -0.052406   0.229425   0.020067   0.011616  -0.013508
     24       0.042253  -0.049758   0.394721   0.003778  -0.003274   0.005385
     25       0.038990  -0.045790   0.372883   0.003806  -0.003655   0.003993
     26       0.082283  -0.095428   0.750704   0.005852  -0.007959   0.009621
     27      -0.024812  -0.025451  -0.000867   0.000378   0.000939  -0.000260
     28      -0.035083  -0.036518  -0.001745   0.000045   0.001270  -0.000144
     29      -0.001208  -0.003221  -0.000803  -0.000433  -0.000020   0.000213
     30      -0.014672  -0.013811  -0.000437   0.000440   0.000805   0.000067
     31       0.000067   0.012904   0.005155   0.002516   0.000907  -0.001239
     32       0.041866   0.078198   0.014504   0.006090  -0.000421  -0.003043
     33       0.412230   0.420804   0.015476  -0.002833  -0.015383   0.003094
     34       0.556875   0.568310   0.021857  -0.004276  -0.021160   0.004154
     35      -0.023666  -0.028232  -0.001461   0.000103   0.000171  -0.000242
     36       0.043658  -0.037623  -0.010948  -0.000448   0.000639  -0.001314
     37       0.022672  -0.026793  -0.004289  -0.000150   0.001175  -0.000024
     38       0.008552  -0.006594  -0.002164  -0.000140   0.000074  -0.000201
     39      -0.386230   0.265269   0.111336   0.005016   0.002100   0.018388
     40       0.125443  -0.092815  -0.035096  -0.001456  -0.000083  -0.004103
     41      -0.081723   0.056095   0.023451   0.001239   0.000361   0.003577
     42      -0.302672   0.330010   0.063433   0.002310  -0.012255   0.002430
     43      -0.483239   0.519423   0.102748   0.003790  -0.019047   0.005059
     44      -0.045744   0.049843   0.010346   0.000479  -0.001185   0.000191
     45       0.000276  -0.004925   0.000328   0.008905  -0.049180   0.002272
     46      -0.000802   0.000651  -0.000944   0.006936  -0.037369   0.001733
     47      -0.000494   0.000163   0.000085  -0.001133   0.006078  -0.000270
     48      -0.011575   0.063875  -0.015486  -0.010715   0.069941  -0.003064
     49       0.006106  -0.030024   0.006207   0.011761  -0.070872   0.003308
     50       0.001072   0.000112  -0.000547  -0.000689   0.003829  -0.000521
     51       0.004829   0.014965   0.009331  -0.129578   0.706525  -0.032814
     52       0.003686   0.018417   0.008283  -0.121638   0.664186  -0.030889
     53      -0.001940  -0.002383  -0.000969   0.018297  -0.100161   0.004644


-----------
IR SPECTRUM  
-----------

 Mode    freq (cm**-1)   T**2         TX         TY         TZ
-------------------------------------------------------------------
   6:        59.39    1.773479  ( -0.492773  -0.032128  -1.236779)
   7:        74.35    0.218001  ( -0.141385  -0.112387  -0.430558)
   8:        79.00    1.013749  (  0.255289  -0.117569  -0.966827)
   9:        82.70    1.134774  (  0.090720  -0.221737   1.037967)
  10:        98.15    0.639564  (  0.735339   0.263489  -0.171504)
  11:       145.01    1.153541  (  0.938774  -0.455055  -0.255284)
  12:       171.12   10.594152  (  2.088358   1.130725   2.225842)
  13:       181.03    2.741973  ( -1.519907  -0.153303  -0.639026)
  14:       212.11    8.699817  ( -1.789525   1.619067  -1.695890)
  15:       216.38   25.561327  (  3.867130  -2.509099   2.076309)
  16:       238.51   36.142052  ( -2.817887  -0.661070   5.269208)
  17:       247.88   46.108813  ( -3.839657   5.122714   2.263549)
  18:       258.17   43.625875  ( -0.566864  -1.005061  -6.503414)
  19:       280.10   51.354698  (  2.238696   6.806863  -0.097738)
  20:       292.50   23.529930  ( -4.423696   1.988848  -0.073015)
  21:       366.72   51.075342  ( -5.070648   4.697624  -1.815543)
  22:       378.14    6.887426  (  1.163566   1.680091   1.646461)
  23:       433.70   50.118087  ( -2.952039   3.672640   5.283490)
  24:       443.40   41.944405  (  4.552596  -2.496532   3.871124)
  25:       475.39   41.059773  ( -1.168159   1.327448  -6.158982)
  26:       506.81   29.666129  (  5.012592  -1.260574  -1.717848)
  27:       546.83  213.437749  ( 14.047147   3.699916   1.557572)
  28:       565.01   23.799243  (  0.185965   4.549324   1.751660)
  29:       630.36  308.651615  ( -0.557654  -3.169651 -17.271188)
  30:       648.32  129.472863  ( -2.668291   4.766863   9.981488)
  31:       688.96  185.899201  (  7.959738 -11.023018  -1.017273)
  32:       728.36  255.624920  ( -9.377363  11.969786  -4.941074)
  33:       841.43   36.869250  (  4.457219  -3.658579   1.901907)
  34:       884.54   54.908264  ( -3.060264   2.305576   6.342505)
  35:      1026.03   66.053590  ( -3.027452  -6.184225  -4.317811)
  36:      1645.82  168.671482  (  8.086707  10.154911   0.392963)
  37:      1658.00   56.482498  (  2.708568  -6.642059   2.242589)
  38:      1664.25   74.035875  ( -2.759350  -1.949722   7.913308)
  39:      1687.27   18.183571  (  3.461785  -2.428646   0.548899)
  40:      1701.84  119.091328  (  3.511856   9.225712  -4.652358)
  41:      1718.70   49.590854  (  2.772364   0.683612  -6.437199)
  42:      3183.82  897.421152  ( 28.235377  -9.895751  -1.502917)
  43:      3423.74  775.268205  ( 26.680848  -7.913524  -0.881308)
  44:      3533.44  179.108227  ( -5.707815  -0.282645 -12.101619)
  45:      3556.46  595.340728  (  2.047958  -2.404396 -24.194327)
  46:      3674.85  186.761164  (-10.952409   7.868786   2.210907)
  47:      3694.37  232.724769  ( -5.716578 -10.427425   9.555852)
  48:      3746.30   74.092929  ( -7.633867   2.937569  -2.680986)
  49:      3761.83  425.145069  ( 15.875470  13.077136   1.450180)
  50:      3785.29  247.261444  (  5.503758   3.787933  14.234523)
  51:      3878.45   51.928834  (  4.733073  -0.264146  -5.427438)
  52:      3879.77   88.755293  (  8.919976   2.233740  -2.049322)
  53:      3882.50   94.247312  ( -5.652161  -2.328316  -7.541839)

The first frequency considered to be a vibration is 6
The total number of vibrations considered is 48


--------------------------
THERMOCHEMISTRY AT 298.15K
--------------------------

Temperature         ... 298.15 K
Pressure            ... 1.00 atm
Total Mass          ... 108.09 AMU

Throughout the following assumptions are being made:
  (1) The electronic state is orbitally nondegenerate
  (2) There are no thermally accessible electronically excited states
  (3) Hindered rotations indicated by low frequency modes are not
      treated as such but are treated as vibrations and this may
      cause some error
  (4) All equations used are the standard statistical mechanics
      equations for an ideal gas
  (5) All vibrations are strictly harmonic

freq.      59.39  E(vib)   ...       0.51 
freq.      74.35  E(vib)   ...       0.49 
freq.      79.00  E(vib)   ...       0.49 
freq.      82.70  E(vib)   ...       0.48 
freq.      98.15  E(vib)   ...       0.46 
freq.     145.01  E(vib)   ...       0.41 
freq.     171.12  E(vib)   ...       0.38 
freq.     181.03  E(vib)   ...       0.37 
freq.     212.11  E(vib)   ...       0.34 
freq.     216.38  E(vib)   ...       0.34 
freq.     238.51  E(vib)   ...       0.32 
freq.     247.88  E(vib)   ...       0.31 
freq.     258.17  E(vib)   ...       0.30 
freq.     280.10  E(vib)   ...       0.28 
freq.     292.50  E(vib)   ...       0.27 
freq.     366.72  E(vib)   ...       0.22 
freq.     378.14  E(vib)   ...       0.21 
freq.     433.70  E(vib)   ...       0.17 
freq.     443.40  E(vib)   ...       0.17 
freq.     475.39  E(vib)   ...       0.15 
freq.     506.81  E(vib)   ...       0.14 
freq.     546.83  E(vib)   ...       0.12 
freq.     565.01  E(vib)   ...       0.11 
freq.     630.36  E(vib)   ...       0.09 
freq.     648.32  E(vib)   ...       0.08 
freq.     688.96  E(vib)   ...       0.07 
freq.     728.36  E(vib)   ...       0.06 
freq.     841.43  E(vib)   ...       0.04 
freq.     884.54  E(vib)   ...       0.04 
freq.    1026.03  E(vib)   ...       0.02 
freq.    1645.82  E(vib)   ...       0.00 
freq.    1658.00  E(vib)   ...       0.00 
freq.    1664.25  E(vib)   ...       0.00 
freq.    1687.27  E(vib)   ...       0.00 
freq.    1701.84  E(vib)   ...       0.00 
freq.    1718.70  E(vib)   ...       0.00 
freq.    3183.82  E(vib)   ...       0.00 
freq.    3423.74  E(vib)   ...       0.00 
freq.    3533.44  E(vib)   ...       0.00 
freq.    3556.46  E(vib)   ...       0.00 
freq.    3674.85  E(vib)   ...       0.00 
freq.    3694.37  E(vib)   ...       0.00 
freq.    3746.30  E(vib)   ...       0.00 
freq.    3761.83  E(vib)   ...       0.00 
freq.    3785.29  E(vib)   ...       0.00 
freq.    3878.45  E(vib)   ...       0.00 
freq.    3879.77  E(vib)   ...       0.00 
freq.    3882.50  E(vib)   ...       0.00 

------------
INNER ENERGY
------------

The inner energy is: U= E(el) + E(ZPE) + E(vib) + E(rot) + E(trans)
    E(el)   - is the total energy from the electronic structure calculation
              = E(kin-el) + E(nuc-el) + E(el-el) + E(nuc-nuc)
    E(ZPE)  - the the zero temperature vibrational energy from the frequency calculation
    E(vib)  - the the finite temperature correction to E(ZPE) due to population
              of excited vibrational states
    E(rot)  - is the rotational thermal energy
    E(trans)- is the translational thermal energy

Summary of contributions to the inner energy U:
Electronic energy                ...   -458.56504364 Eh
Zero point energy                ...      0.15007906 Eh      94.18 kcal/mol
Thermal vibrational correction   ...      0.01187941 Eh       7.45 kcal/mol
Thermal rotational correction    ...      0.00141627 Eh       0.89 kcal/mol
Thermal translational correction ...      0.00141627 Eh       0.89 kcal/mol
-----------------------------------------------------------------------
Total thermal energy                   -458.40025264 Eh


Summary of corrections to the electronic energy:
(perhaps to be used in another calculation)
Total thermal correction                  0.01471195 Eh       9.23 kcal/mol
Non-thermal (ZPE) correction              0.15007906 Eh      94.18 kcal/mol
-----------------------------------------------------------------------
Total correction                          0.16479101 Eh     103.41 kcal/mol


--------
ENTHALPY
--------

The enthalpy is H = U + kB*T
                kB is Boltzmann's constant
Total free energy                 ...   -458.40025264 Eh 
Thermal Enthalpy correction       ...      0.00094421 Eh       0.59 kcal/mol
-----------------------------------------------------------------------
Total Enthalpy                    ...   -458.39930843 Eh


Note: Only C1 symmetry has been detected, increase convergence thresholds 
      if your molecule has a higher symmetry. Symmetry factor of 1.0 is   
      used for the rotational entropy correction. 
 

Note: Rotational entropy computed according to Herzberg 
Infrared and Raman Spectra, Chapter V,1, Van Nostrand Reinhold, 1945 
Point Group:  C1, Symmetry Number:   1  
Rotational constants in cm-1:     0.057165     0.047362     0.045720 

Vibrational entropy computed according to the QRRHO of S. Grimme
Chem.Eur.J. 2012 18 9955


-------
ENTROPY
-------

The entropy contributions are T*S = T*(S(el)+S(vib)+S(rot)+S(trans))
     S(el)   - electronic entropy
     S(vib)  - vibrational entropy
     S(rot)  - rotational entropy
     S(trans)- translational entropy
The entropies will be listed as mutliplied by the temperature to get
units of energy

Electronic entropy                ...      0.00000000 Eh      0.00 kcal/mol
Vibrational entropy               ...      0.02108714 Eh     13.23 kcal/mol
Rotational entropy                ...      0.01375819 Eh      8.63 kcal/mol
Translational entropy             ...      0.01898142 Eh     11.91 kcal/mol
-----------------------------------------------------------------------
Final entropy term                ...      0.05382675 Eh     33.78 kcal/mol

In case the symmetry of your molecule has not been determined correctly
or in case you have a reason to use a different symmetry number we print 
out the resulting rotational entropy values for sn=1,12 :
 --------------------------------------------------------
|  sn= 1 | S(rot)=       0.01375819 Eh      8.63 kcal/mol|
|  sn= 2 | S(rot)=       0.01310373 Eh      8.22 kcal/mol|
|  sn= 3 | S(rot)=       0.01272090 Eh      7.98 kcal/mol|
|  sn= 4 | S(rot)=       0.01244928 Eh      7.81 kcal/mol|
|  sn= 5 | S(rot)=       0.01223859 Eh      7.68 kcal/mol|
|  sn= 6 | S(rot)=       0.01206645 Eh      7.57 kcal/mol|
|  sn= 7 | S(rot)=       0.01192090 Eh      7.48 kcal/mol|
|  sn= 8 | S(rot)=       0.01179482 Eh      7.40 kcal/mol|
|  sn= 9 | S(rot)=       0.01168361 Eh      7.33 kcal/mol|
|  sn=10 | S(rot)=       0.01158413 Eh      7.27 kcal/mol|
|  sn=11 | S(rot)=       0.01149414 Eh      7.21 kcal/mol|
|  sn=12 | S(rot)=       0.01141199 Eh      7.16 kcal/mol|
 --------------------------------------------------------


-------------------
GIBBS FREE ENERGY
-------------------

The Gibbs free energy is G = H - T*S

Total enthalpy                    ...   -458.39930843 Eh 
Total entropy correction          ...     -0.05382675 Eh    -33.78 kcal/mol
-----------------------------------------------------------------------
Final Gibbs free energy         ...   -458.45313518 Eh

For completeness - the Gibbs free energy minus the electronic energy
G-E(el)                           ...      0.11190846 Eh     70.22 kcal/mol


Total Time for Numerical Frequencies  :     14341.034 sec

Timings for individual modules:

Sum of individual times         ...      846.834 sec (=  14.114 min)
GTO integral calculation        ...        5.313 sec (=   0.089 min)   0.6 %
SCF iterations                  ...       44.557 sec (=   0.743 min)   5.3 %
MP2 module                      ...      795.849 sec (=  13.264 min)  94.0 %
Geometry relaxation             ...        1.114 sec (=   0.019 min)   0.1 %
                             ****ORCA TERMINATED NORMALLY****
TOTAL RUN TIME: 0 days 4 hours 10 minutes 53 seconds 605 msec
